
*************** JDFTx 1.4.0 (git hash 3b98305) ***************

Start date and time: Fri Apr 10 17:54:31 2020
Executable /export/data/share/wufeng/share/programs/JDFTX-fix20180209/build//jdftx with command-line: -i main.in
Running on hosts (process indices):  krnode15.krhpc (0-1)  krnode16.krhpc (2-3)  krnode17.krhpc (4-5)  krnode18.krhpc (6-7)
Divided in process groups (process indices):  0 (0)  1 (1)  2 (2)  3 (3)  4 (4)  5 (5)  6 (6)  7 (7)
Resource initialization completed at t[s]:      0.08
Run totals: 8 processes, 64 threads, 0 GPUs


Input parsed successfully to the following command list (including defaults):

add-U 	Fe1 d 0.158 \
	Fe2 d 0.158
basis kpoint-dependent
coords-type Lattice
core-overlap-check vector
coulomb-interaction Periodic
davidson-band-ratio 1.1
dump End State Dtot EigStats Ecomponents
dump Electronic State
dump 
dump 
dump-interval Electronic 10
dump-name pristine.$VAR
elec-cutoff 20 120
elec-eigen-algo Davidson
elec-ex-corr gga-PBE
elec-initial-magnetization 0.000000 yes
elec-n-bands 720
elec-smearing Cold 0.001
electronic-minimize  \
	dirUpdateScheme      FletcherReeves \
	linminMethod         DirUpdateRecommended \
	nIterations          100 \
	history              15 \
	knormThreshold       0 \
	energyDiffThreshold  1e-07 \
	nEnergyDiff          2 \
	alphaTstart          1 \
	alphaTmin            1e-10 \
	updateTestStepSize   yes \
	alphaTreduceFactor   0.1 \
	alphaTincreaseFactor 3 \
	nAlphaAdjustMax      3 \
	wolfeEnergy          0.0001 \
	wolfeGradient        0.9 \
	fdTest               no
exchange-regularization WignerSeitzTruncated
fftbox 96 96 135
fluid None
fluid-ex-corr lda-TF lda-PZ
fluid-gummel-loop 10 1.000000e-05
fluid-minimize  \
	dirUpdateScheme      PolakRibiere \
	linminMethod         DirUpdateRecommended \
	nIterations          100 \
	history              15 \
	knormThreshold       0 \
	energyDiffThreshold  0 \
	nEnergyDiff          2 \
	alphaTstart          1 \
	alphaTmin            1e-10 \
	updateTestStepSize   yes \
	alphaTreduceFactor   0.1 \
	alphaTincreaseFactor 3 \
	nAlphaAdjustMax      3 \
	wolfeEnergy          0.0001 \
	wolfeGradient        0.9 \
	fdTest               no
fluid-solvent H2O 55.338 ScalarEOS \
	epsBulk 78.4 \
	pMol 0.92466 \
	epsInf 1.77 \
	Pvap 1.06736e-10 \
	sigmaBulk 4.62e-05 \
	Rvdw 2.61727 \
	Res 1.42
forces-output-coords Positions
initial-magnetic-moments  \
	Fe1 -5 -5 -5 -5 -5 -5 -5 -5 -5 -5 -5 -5 -5 -5 -5 -5 -5 -5 -5 -5 -5 -5 -5 -5 \
	Fe2 5 5 5 5 5 5 5 5 5 5 5 5 5 5 5 5 5 5 5 5 5 5 5 5
ion Fe1   0.166666500000000   0.333333500000000   0.020978278000000 0
ion Fe1   0.333333500000000   0.166666500000000   0.979021722000000 0
ion Fe1   0.000000000000000   0.000000000000000   0.354311291000000 0
ion Fe1   0.166666500000000   0.333333500000000   0.312354967000000 0
ion Fe1   0.333333500000000   0.166666500000000   0.687645033000000 0
ion Fe1   0.000000000000000   0.000000000000000   0.645688709000000 0
ion Fe1   0.666666500000000   0.333333500000000   0.020978278000000 0
ion Fe1   0.833333500000000   0.166666500000000   0.979021722000000 0
ion Fe1   0.500000000000000   0.000000000000000   0.354311291000000 0
ion Fe1   0.666666500000000   0.333333500000000   0.312354967000000 0
ion Fe1   0.833333500000000   0.166666500000000   0.687645033000000 0
ion Fe1   0.500000000000000   0.000000000000000   0.645688709000000 0
ion Fe1   0.166666500000000   0.833333500000000   0.020978278000000 0
ion Fe1   0.333333500000000   0.666666500000000   0.979021722000000 0
ion Fe1   0.000000000000000   0.500000000000000   0.354311291000000 0
ion Fe1   0.166666500000000   0.833333500000000   0.312354967000000 0
ion Fe1   0.333333500000000   0.666666500000000   0.687645033000000 0
ion Fe1   0.000000000000000   0.500000000000000   0.645688709000000 0
ion Fe1   0.666666500000000   0.833333500000000   0.020978278000000 0
ion Fe1   0.833333500000000   0.666666500000000   0.979021722000000 0
ion Fe1   0.500000000000000   0.500000000000000   0.354311291000000 0
ion Fe1   0.666666500000000   0.833333500000000   0.312354967000000 0
ion Fe1   0.833333500000000   0.666666500000000   0.687645033000000 0
ion Fe1   0.500000000000000   0.500000000000000   0.645688709000000 0
ion Fe2   0.000000000000000   0.000000000000000   0.145689891000000 0
ion Fe2   0.000000000000000   0.000000000000000   0.854310109000000 0
ion Fe2   0.333333500000000   0.166666500000000   0.479023132000000 0
ion Fe2   0.333333500000000   0.166666500000000   0.187642879000000 0
ion Fe2   0.166666500000000   0.333333500000000   0.812357121000000 0
ion Fe2   0.166666500000000   0.333333500000000   0.520976868000000 0
ion Fe2   0.500000000000000   0.000000000000000   0.145689891000000 0
ion Fe2   0.500000000000000   0.000000000000000   0.854310109000000 0
ion Fe2   0.833333500000000   0.166666500000000   0.479023132000000 0
ion Fe2   0.833333500000000   0.166666500000000   0.187642879000000 0
ion Fe2   0.666666500000000   0.333333500000000   0.812357121000000 0
ion Fe2   0.666666500000000   0.333333500000000   0.520976868000000 0
ion Fe2   0.000000000000000   0.500000000000000   0.145689891000000 0
ion Fe2   0.000000000000000   0.500000000000000   0.854310109000000 0
ion Fe2   0.333333500000000   0.666666500000000   0.479023132000000 0
ion Fe2   0.333333500000000   0.666666500000000   0.187642879000000 0
ion Fe2   0.166666500000000   0.833333500000000   0.812357121000000 0
ion Fe2   0.166666500000000   0.833333500000000   0.520976868000000 0
ion Fe2   0.500000000000000   0.500000000000000   0.145689891000000 0
ion Fe2   0.500000000000000   0.500000000000000   0.854310109000000 0
ion Fe2   0.833333500000000   0.666666500000000   0.479023132000000 0
ion Fe2   0.833333500000000   0.666666500000000   0.187642879000000 0
ion Fe2   0.666666500000000   0.833333500000000   0.812357121000000 0
ion Fe2   0.666666500000000   0.833333500000000   0.520976868000000 0
ion O   0.319093907500000   0.333333480000000   0.916666811000000 0
ion O   0.166666520000000   0.485760427500000   0.916666811000000 0
ion O   0.485760427500000   0.319093907000000   0.083333189000000 0
ion O   0.333333480000000   0.014239572500000   0.083333189000000 0
ion O   0.180906092500000   0.166666520000000   0.083333189000000 0
ion O   0.014239572500000   0.180906093000000   0.916666811000000 0
ion O   0.152427299000000   0.000000091000000   0.249999635000000 0
ion O  -0.000000091000000   0.152427207500000   0.249999635000000 0
ion O   0.319093828000000   0.485760494000000   0.416666682000000 0
ion O   0.166666666500000   0.180906172500000   0.416666682000000 0
ion O   0.014239505500000   0.333333333500000   0.416666682000000 0
ion O   0.347572792500000   0.347572701500000   0.249999635000000 0
ion O   0.485760494500000   0.166666666500000   0.583333318000000 0
ion O   0.333333333500000   0.319093827500000   0.583333318000000 0
ion O   0.152427207500000   0.152427298500000   0.750000365000000 0
ion O   0.000000091000000   0.347572792500000   0.750000365000000 0
ion O   0.347572701000000  -0.000000091000000   0.750000365000000 0
ion O   0.180906172000000   0.014239506000000   0.583333318000000 0
ion O   0.819093907500000   0.333333480000000   0.916666811000000 0
ion O   0.666666520000000   0.485760427500000   0.916666811000000 0
ion O   0.985760427500000   0.319093907000000   0.083333189000000 0
ion O   0.833333480000000   0.014239572500000   0.083333189000000 0
ion O   0.680906092500000   0.166666520000000   0.083333189000000 0
ion O   0.514239572500000   0.180906093000000   0.916666811000000 0
ion O   0.652427299000000   0.000000091000000   0.249999635000000 0
ion O   0.499999909000000   0.152427207500000   0.249999635000000 0
ion O   0.819093828000000   0.485760494000000   0.416666682000000 0
ion O   0.666666666500000   0.180906172500000   0.416666682000000 0
ion O   0.514239505500000   0.333333333500000   0.416666682000000 0
ion O   0.847572792500000   0.347572701500000   0.249999635000000 0
ion O   0.985760494500000   0.166666666500000   0.583333318000000 0
ion O   0.833333333500000   0.319093827500000   0.583333318000000 0
ion O   0.652427207500000   0.152427298500000   0.750000365000000 0
ion O   0.500000091000000   0.347572792500000   0.750000365000000 0
ion O   0.847572701000000  -0.000000091000000   0.750000365000000 0
ion O   0.680906172000000   0.014239506000000   0.583333318000000 0
ion O   0.319093907500000   0.833333480000000   0.916666811000000 0
ion O   0.166666520000000   0.985760427500000   0.916666811000000 0
ion O   0.485760427500000   0.819093907000000   0.083333189000000 0
ion O   0.333333480000000   0.514239572500000   0.083333189000000 0
ion O   0.180906092500000   0.666666520000000   0.083333189000000 0
ion O   0.014239572500000   0.680906093000000   0.916666811000000 0
ion O   0.152427299000000   0.500000091000000   0.249999635000000 0
ion O  -0.000000091000000   0.652427207500000   0.249999635000000 0
ion O   0.319093828000000   0.985760494000000   0.416666682000000 0
ion O   0.166666666500000   0.680906172500000   0.416666682000000 0
ion O   0.014239505500000   0.833333333500000   0.416666682000000 0
ion O   0.347572792500000   0.847572701500000   0.249999635000000 0
ion O   0.485760494500000   0.666666666500000   0.583333318000000 0
ion O   0.333333333500000   0.819093827500000   0.583333318000000 0
ion O   0.152427207500000   0.652427298500000   0.750000365000000 0
ion O   0.000000091000000   0.847572792500000   0.750000365000000 0
ion O   0.347572701000000   0.499999909000000   0.750000365000000 0
ion O   0.180906172000000   0.514239506000000   0.583333318000000 0
ion O   0.819093907500000   0.833333480000000   0.916666811000000 0
ion O   0.666666520000000   0.985760427500000   0.916666811000000 0
ion O   0.985760427500000   0.819093907000000   0.083333189000000 0
ion O   0.833333480000000   0.514239572500000   0.083333189000000 0
ion O   0.680906092500000   0.666666520000000   0.083333189000000 0
ion O   0.514239572500000   0.680906093000000   0.916666811000000 0
ion O   0.652427299000000   0.500000091000000   0.249999635000000 0
ion O   0.499999909000000   0.652427207500000   0.249999635000000 0
ion O   0.819093828000000   0.985760494000000   0.416666682000000 0
ion O   0.666666666500000   0.680906172500000   0.416666682000000 0
ion O   0.514239505500000   0.833333333500000   0.416666682000000 0
ion O   0.847572792500000   0.847572701500000   0.249999635000000 0
ion O   0.985760494500000   0.666666666500000   0.583333318000000 0
ion O   0.833333333500000   0.819093827500000   0.583333318000000 0
ion O   0.652427207500000   0.652427298500000   0.750000365000000 0
ion O   0.500000091000000   0.847572792500000   0.750000365000000 0
ion O   0.847572701000000   0.499999909000000   0.750000365000000 0
ion O   0.680906172000000   0.514239506000000   0.583333318000000 0
ion-species /home/tjsmart/Pseudo/Fe1_pbe_v1.5.uspp.F.UPF.UPF
ion-species /home/tjsmart/Pseudo/Fe2_pbe_v1.5.uspp.F.UPF.UPF
ion-species /home/tjsmart/Pseudo/O_pbe_v1.2.uspp.F.UPF.UPF
ion-width 0
ionic-minimize  \
	dirUpdateScheme      L-BFGS \
	linminMethod         DirUpdateRecommended \
	nIterations          0 \
	history              15 \
	knormThreshold       0.0001 \
	energyDiffThreshold  1e-06 \
	nEnergyDiff          2 \
	alphaTstart          1 \
	alphaTmin            1e-10 \
	updateTestStepSize   yes \
	alphaTreduceFactor   0.1 \
	alphaTincreaseFactor 3 \
	nAlphaAdjustMax      3 \
	wolfeEnergy          0.0001 \
	wolfeGradient        0.9 \
	fdTest               no
kpoint   0.000000000000   0.000000000000   0.000000000000  1.00000000000000
kpoint-folding 2 2 2 
latt-move-scale 1 1 1
latt-scale 1 1 1 
lattice  \
	  19.398399999999999   -9.699199999999999    0.000000000000000  \
	   0.000000000000000   16.799510000000001    0.000000000000000  \
	   0.000000000000000    0.000000000000000   26.439599999999999 
lattice-minimize  \
	dirUpdateScheme      L-BFGS \
	linminMethod         DirUpdateRecommended \
	nIterations          0 \
	history              15 \
	knormThreshold       0 \
	energyDiffThreshold  1e-06 \
	nEnergyDiff          2 \
	alphaTstart          1 \
	alphaTmin            1e-10 \
	updateTestStepSize   yes \
	alphaTreduceFactor   0.1 \
	alphaTincreaseFactor 3 \
	nAlphaAdjustMax      3 \
	wolfeEnergy          0.0001 \
	wolfeGradient        0.9 \
	fdTest               no
lcao-params 30 1e-06 0.001
pcm-variant GLSSA13
spintype z-spin
subspace-rotation-factor 1 yes
symmetries automatic
symmetry-threshold 0.0001



---------- Setting up symmetries ----------

Found 24 point-group symmetries of the bravais lattice
Found 72 space-group symmetries with basis
Applied RMS atom displacement 6.6639e-06 bohrs to make symmetries exact.

---------- Initializing the Grid ----------
R = 
[    19.3984    -9.6992          0  ]
[          0    16.7995          0  ]
[          0          0    26.4396  ]
unit cell volume = 8616.23
G =
[   0.323902   0.187005         -0  ]
[          0    0.37401          0  ]
[          0         -0   0.237643  ]
Minimum fftbox size, Smin = [  96  96  132  ]
Chosen fftbox size, S = [  96  96  135  ]

---------- Initializing tighter grid for wavefunction operations ----------
R = 
[    19.3984    -9.6992          0  ]
[          0    16.7995          0  ]
[          0          0    26.4396  ]
unit cell volume = 8616.23
G =
[   0.323902   0.187005         -0  ]
[          0    0.37401          0  ]
[          0         -0   0.237643  ]
Minimum fftbox size, Smin = [  80  80  108  ]
Chosen fftbox size, S = [  80  80  108  ]

---------- Exchange Correlation functional ----------
Initalized PBE GGA exchange.
Initalized PBE GGA correlation.

---------- Setting up pseudopotentials ----------
Width of ionic core gaussian charges (only for fluid interactions / plotting) set to 0

Reading pseudopotential file '/home/tjsmart/Pseudo/Fe1_pbe_v1.5.uspp.F.UPF.UPF':
  'Fe' pseudopotential, ' SLA  PW   PBX  PBC' functional
  Generated by new atomic code, or converted to UPF format
  16 valence electrons, 5 orbitals, 6 projectors, 861 radial grid points, with lMax = 2
  Transforming core density to a uniform radial grid of dG=0.02 with 1752 points.
  Transforming local potential to a uniform radial grid of dG=0.02 with 1752 points.
  Transforming nonlocal projectors to a uniform radial grid of dG=0.02 with 432 points.
  Transforming density augmentations to a uniform radial grid of dG=0.02 with 1752 points.
    3S    l: 0   occupation:  2.0
    3P    l: 1   occupation:  6.0
    3D    l: 2   occupation:  5.0
    4S    l: 0   occupation:  2.0
    4P    l: 1   occupation:  0.0
  Transforming atomic orbitals to a uniform radial grid of dG=0.02 with 432 points.
  Approximate pseudo-atom eigenvalues:   s ( -4.2 -0.52 )  p ( -2.9 -0.31 )  d ( -0.76 )
  Core radius for overlap checks: 1.63 bohrs.

Reading pseudopotential file '/home/tjsmart/Pseudo/Fe2_pbe_v1.5.uspp.F.UPF.UPF':
  'Fe' pseudopotential, ' SLA  PW   PBX  PBC' functional
  Generated by new atomic code, or converted to UPF format
  16 valence electrons, 5 orbitals, 6 projectors, 861 radial grid points, with lMax = 2
  Transforming core density to a uniform radial grid of dG=0.02 with 1752 points.
  Transforming local potential to a uniform radial grid of dG=0.02 with 1752 points.
  Transforming nonlocal projectors to a uniform radial grid of dG=0.02 with 432 points.
  Transforming density augmentations to a uniform radial grid of dG=0.02 with 1752 points.
    3S    l: 0   occupation:  2.0
    3P    l: 1   occupation:  6.0
    3D    l: 2   occupation:  5.0
    4S    l: 0   occupation:  2.0
    4P    l: 1   occupation:  0.0
  Transforming atomic orbitals to a uniform radial grid of dG=0.02 with 432 points.
  Approximate pseudo-atom eigenvalues:   s ( -4.2 -0.52 )  p ( -2.9 -0.31 )  d ( -0.76 )
  Core radius for overlap checks: 1.63 bohrs.

Reading pseudopotential file '/home/tjsmart/Pseudo/O_pbe_v1.2.uspp.F.UPF.UPF':
  'O' pseudopotential, 'SLA  PW   PBE  PBE' functional
  Generated by new atomic code, or converted to UPF format
  6 valence electrons, 2 orbitals, 5 projectors, 737 radial grid points, with lMax = 2
  Transforming core density to a uniform radial grid of dG=0.02 with 1752 points.
  Transforming local potential to a uniform radial grid of dG=0.02 with 1752 points.
  Transforming nonlocal projectors to a uniform radial grid of dG=0.02 with 432 points.
  Transforming density augmentations to a uniform radial grid of dG=0.02 with 1752 points.
    2S    l: 0   occupation:  2.0
    2P    l: 1   occupation:  4.0
  Transforming atomic orbitals to a uniform radial grid of dG=0.02 with 432 points.
  Approximate pseudo-atom eigenvalues:   s ( -0.9 )  p ( -0.33 )  d ( )
  Core radius for overlap checks: 1.23 bohrs.

Folded 1 k-points by 2x2x2 to 8 k-points.

---------- Setting up k-points, bands, fillings ----------
Reduced to 4 k-points under symmetry. 
Computing the number of bands and number of electrons
Calculating initial fillings.
nElectrons: 1200.000000   nBands: 720   nStates: 8

----- Setting up reduced wavefunction bases (one per k-point) -----
average nbasis = 36803.875 , ideal nbasis = 36809.202

---------- Setting up ewald sum ----------
Optimum gaussian width for ewald sums = 3.682581 bohr.
Real space sum over 567 unit cells with max indices [  4  4  3  ]
Reciprocal space sum over 9025 terms with max indices [  9  9  12  ]

---------- Allocating electronic variables ----------
Initializing wave functions:  linear combination of atomic orbitals
Fe1 (M=5) pseudo-atom majority spin occupations:   s ( 1 1 )  p ( 3 0.5 )  d ( 5 )
Fe1 (M=5) pseudo-atom minority spin occupations:   s ( 1 0 )  p ( 3 0 )  d ( 1.5 )
Fe2 (M=5) pseudo-atom majority spin occupations:   s ( 1 1 )  p ( 3 0.5 )  d ( 5 )
Fe2 (M=5) pseudo-atom minority spin occupations:   s ( 1 0 )  p ( 3 0 )  d ( 1.5 )
O pseudo-atom occupations:   s ( 2 )  p ( 4 )
	FillingsUpdate:  mu: +0.505418685  nElectrons: 1200.000000  magneticMoment: [ Abs: 167.23050  Tot: +0.00000 ]
LCAOMinimize: Iter:   0  F: -6972.1415183678018366  |grad|_K:  1.484e-02  alpha:  1.000e+00
LCAOMinimize: 	Step increased F by 1.132320e+02, reducing alpha to 3.783698e-02.
	FillingsUpdate:  mu: +0.508072360  nElectrons: 1200.000000  magneticMoment: [ Abs: 190.33159  Tot: -0.00000 ]
LCAOMinimize: Iter:   1  F: -7026.2964295319670782  |grad|_K:  1.388e-02  alpha:  3.784e-02  linmin: -1.054e-01  cgtest:  8.757e-01  t[s]:    169.83
	FillingsUpdate:  mu: +0.484894754  nElectrons: 1200.000000  magneticMoment: [ Abs: 222.85701  Tot: -0.00000 ]
LCAOMinimize: Iter:   2  F: -7092.2950149057714953  |grad|_K:  6.383e-03  alpha:  7.735e-02  linmin: -9.061e-02  cgtest:  1.381e+00  t[s]:    220.31
LCAOMinimize: Encountered beta<0, resetting CG.
	FillingsUpdate:  mu: +0.443076762  nElectrons: 1200.000000  magneticMoment: [ Abs: 229.45273  Tot: +0.00000 ]
LCAOMinimize: Iter:   3  F: -7112.0985883061666755  |grad|_K:  2.624e-03  alpha:  1.325e-01  linmin: -1.800e-01  cgtest:  1.554e+00  t[s]:    270.17
LCAOMinimize: Encountered beta<0, resetting CG.
LCAOMinimize: 	Predicted alpha/alphaT>3.000000, increasing alphaT to 3.975895e-01.
	FillingsUpdate:  mu: +0.396935150  nElectrons: 1200.000000  magneticMoment: [ Abs: 208.56307  Tot: +0.00000 ]
LCAOMinimize: Iter:   4  F: -7121.7306321200803723  |grad|_K:  4.016e-04  alpha:  3.330e-01  linmin:  1.712e-01  cgtest: -3.914e-01  t[s]:    336.35
	FillingsUpdate:  mu: +0.514058888  nElectrons: 1200.000000  magneticMoment: [ Abs: 208.00053  Tot: +0.00000 ]
LCAOMinimize: Iter:   5  F: -7121.8307638625765321  |grad|_K:  4.188e-04  alpha:  4.904e-01  linmin: -4.890e-03  cgtest:  9.033e-01  t[s]:    387.91
	FillingsUpdate:  mu: +0.422868990  nElectrons: 1200.000000  magneticMoment: [ Abs: 211.31805  Tot: -0.00000 ]
LCAOMinimize: Iter:   6  F: -7121.9545380079098322  |grad|_K:  8.040e-05  alpha:  2.368e-01  linmin:  1.156e-01  cgtest: -3.557e-01  t[s]:    438.01
	FillingsUpdate:  mu: +0.422143173  nElectrons: 1200.000000  magneticMoment: [ Abs: 211.41426  Tot: -0.00000 ]
LCAOMinimize: Iter:   7  F: -7121.9698582040537076  |grad|_K:  3.533e-05  alpha:  6.257e-01  linmin: -1.287e-01  cgtest:  9.193e-01  t[s]:    488.79
LCAOMinimize: Encountered beta<0, resetting CG.
	FillingsUpdate:  mu: +0.412237170  nElectrons: 1200.000000  magneticMoment: [ Abs: 211.24610  Tot: +0.00000 ]
LCAOMinimize: Iter:   8  F: -7121.9712028098874725  |grad|_K:  2.366e-05  alpha:  3.464e-01  linmin: -3.691e-02  cgtest:  1.851e-01  t[s]:    539.38
	FillingsUpdate:  mu: +0.412348664  nElectrons: 1200.000000  magneticMoment: [ Abs: 211.43594  Tot: +0.00000 ]
LCAOMinimize: Iter:   9  F: -7121.9724219556264870  |grad|_K:  1.063e-05  alpha:  4.088e-01  linmin: -2.867e-01  cgtest:  9.288e-01  t[s]:    590.19
LCAOMinimize: Encountered beta<0, resetting CG.
LCAOMinimize: 	Wrong curvature in test step, increasing alphaT to 1.226419e+00.
	FillingsUpdate:  mu: +0.412445528  nElectrons: 1200.000000  magneticMoment: [ Abs: 211.49929  Tot: +0.00000 ]
LCAOMinimize: Iter:  10  F: -7121.9729482099328379  |grad|_K:  7.474e-06  alpha: -2.882e-01  linmin: -2.772e-01  cgtest:  8.695e-01  t[s]:    639.93
LCAOMinimize: Encountered beta<0, resetting CG.
	FillingsUpdate:  mu: +0.494604533  nElectrons: 1200.000000  magneticMoment: [ Abs: 211.49599  Tot: -0.00000 ]
LCAOMinimize: Iter:  11  F: -7121.9730277603002833  |grad|_K:  5.852e-06  alpha:  2.456e-01  linmin: -1.934e-01  cgtest:  9.452e-01  t[s]:    690.58
LCAOMinimize: Encountered beta<0, resetting CG.
LCAOMinimize: 	Predicted alpha/alphaT>3.000000, increasing alphaT to 7.367405e-01.
	FillingsUpdate:  mu: +0.412391556  nElectrons: 1200.000000  magneticMoment: [ Abs: 211.50566  Tot: +0.00000 ]
LCAOMinimize: Iter:  12  F: -7121.9730680266357012  |grad|_K:  5.017e-06  alpha:  1.900e-01  linmin: -1.798e-01  cgtest:  1.000e+00  t[s]:    754.76
LCAOMinimize: Encountered beta<0, resetting CG.
LCAOMinimize: 	Predicted alpha/alphaT>3.000000, increasing alphaT to 5.701096e-01.
	FillingsUpdate:  mu: +0.412386210  nElectrons: 1200.000000  magneticMoment: [ Abs: 211.55427  Tot: -0.00000 ]
LCAOMinimize: Iter:  13  F: -7121.9731805918790997  |grad|_K:  3.690e-07  alpha:  1.337e+00  linmin: -2.088e-02  cgtest:  8.319e-02  t[s]:    819.94
LCAOMinimize: Encountered beta<0, resetting CG.
	FillingsUpdate:  mu: +0.412383620  nElectrons: 1200.000000  magneticMoment: [ Abs: 211.55111  Tot: -0.00000 ]
LCAOMinimize: Iter:  14  F: -7121.9731810765233604  |grad|_K:  1.673e-07  alpha:  1.068e+00  linmin:  1.213e-04  cgtest: -9.002e-04  t[s]:    869.85
	FillingsUpdate:  mu: +0.494777820  nElectrons: 1200.000000  magneticMoment: [ Abs: 211.55112  Tot: -0.00000 ]
LCAOMinimize: Iter:  15  F: -7121.9731810765970295  |grad|_K:  1.671e-07  alpha:  3.789e-04  linmin: -1.701e-01  cgtest:  1.000e+00  t[s]:    921.72
LCAOMinimize: Encountered beta<0, resetting CG.
LCAOMinimize: Converged (|Delta F|<1.000000e-06 for 2 iters).


---- Citations for features of the code used in this run ----

   Software package:
      R. Sundararaman, K. Letchworth-Weaver, K.A. Schwarz, D. Gunceler, Y. Ozhabes and T.A. Arias, 'JDFTx: software for joint density-functional theory', SoftwareX 6, 278 (2017)

   Simplified rotationally-invariant DFT+U:
      S. L. Dudarev et al., Phys. Rev. B 57, 1505 (1998)

   gga-PBE exchange-correlation functional:
      J.P. Perdew, K. Burke and M. Ernzerhof, Phys. Rev. Lett. 77, 3865 (1996)

   Total energy minimization with Auxiliary Hamiltonian:
      C. Freysoldt, S. Boeck, and J. Neugebauer, Phys. Rev. B 79, 241103(R) (2009)

   Smooth electrostatic potentials by atom-potential subtraction:
      R. Sundararaman and Y. Ping, J. Chem. Phys. 146, 104109 (2017)

This list may not be complete. Please suggest additional citations or
report any other bugs at https://github.com/shankar1729/jdftx/issues

Initialization completed successfully at t[s]:    930.61


-------- Electronic minimization -----------
	FillingsUpdate:  mu: +0.494777820  nElectrons: 1200.000000  magneticMoment: [ Abs: 211.55112  Tot: -0.00000 ]
ElecMinimize: Iter:   0  F: -7121.973181076594301  |grad|_K:  2.057e-04  alpha:  1.000e+00
	FillingsUpdate:  mu: +0.402775499  nElectrons: 1200.000000  magneticMoment: [ Abs: 211.32609  Tot: +0.00000 ]
	SubspaceRotationAdjust: set factor to 1
ElecMinimize: Iter:   1  F: -7124.423246606131215  |grad|_K:  1.223e-04  alpha:  2.707e-01  linmin:  8.910e-06  t[s]:   1059.80
	FillingsUpdate:  mu: +0.398325371  nElectrons: 1200.000000  magneticMoment: [ Abs: 208.60965  Tot: +0.00000 ]
	SubspaceRotationAdjust: set factor to 0.792
ElecMinimize: Iter:   2  F: -7125.319185122128147  |grad|_K:  7.491e-05  alpha:  2.809e-01  linmin:  1.908e-05  t[s]:   1132.77
	FillingsUpdate:  mu: +0.425914958  nElectrons: 1200.000000  magneticMoment: [ Abs: 210.91779  Tot: +0.00000 ]
	SubspaceRotationAdjust: set factor to 0.551
ElecMinimize: Iter:   3  F: -7125.749268132007273  |grad|_K:  2.773e-05  alpha:  3.610e-01  linmin: -2.800e-05  t[s]:   1204.73
	FillingsUpdate:  mu: +0.421664092  nElectrons: 1200.000000  magneticMoment: [ Abs: 209.93317  Tot: +0.00000 ]
	SubspaceRotationAdjust: set factor to 0.658
ElecMinimize: Iter:   4  F: -7125.847441931073263  |grad|_K:  2.279e-05  alpha:  5.848e-01  linmin: -8.164e-06  t[s]:   1276.28
	FillingsUpdate:  mu: +0.427199403  nElectrons: 1200.000000  magneticMoment: [ Abs: 209.16778  Tot: +0.00000 ]
	SubspaceRotationAdjust: set factor to 0.757
ElecMinimize: Iter:   5  F: -7125.875515070254551  |grad|_K:  1.347e-05  alpha:  2.460e-01  linmin: -3.704e-06  t[s]:   1346.73
	FillingsUpdate:  mu: +0.428339438  nElectrons: 1200.000000  magneticMoment: [ Abs: 208.41792  Tot: +0.00000 ]
	SubspaceRotationAdjust: set factor to 0.768
ElecMinimize: Iter:   6  F: -7125.889187901718287  |grad|_K:  8.708e-06  alpha:  3.517e-01  linmin:  1.701e-05  t[s]:   1417.58
	FillingsUpdate:  mu: +0.426395378  nElectrons: 1200.000000  magneticMoment: [ Abs: 208.06374  Tot: -0.00000 ]
	SubspaceRotationAdjust: set factor to 0.781
ElecMinimize: Iter:   7  F: -7125.894339116676747  |grad|_K:  5.932e-06  alpha:  3.186e-01  linmin:  9.121e-08  t[s]:   1489.80
	FillingsUpdate:  mu: +0.428036723  nElectrons: 1200.000000  magneticMoment: [ Abs: 207.79690  Tot: +0.00000 ]
	SubspaceRotationAdjust: set factor to 0.756
ElecMinimize: Iter:   8  F: -7125.896619612290124  |grad|_K:  3.316e-06  alpha:  3.026e-01  linmin:  1.452e-06  t[s]:   1561.05
	FillingsUpdate:  mu: +0.427179640  nElectrons: 1200.000000  magneticMoment: [ Abs: 207.72536  Tot: +0.00000 ]

Dumping 'pristine.fillings' ... done
Dumping 'pristine.wfns' ... done
Dumping 'pristine.eigenvals' ... done
	SubspaceRotationAdjust: set factor to 0.765
ElecMinimize: Iter:   9  F: -7125.897510662930472  |grad|_K:  2.500e-06  alpha:  3.789e-01  linmin:  5.647e-08  t[s]:   1638.08
	FillingsUpdate:  mu: +0.426996148  nElectrons: 1200.000000  magneticMoment: [ Abs: 207.68210  Tot: +0.00000 ]
	SubspaceRotationAdjust: set factor to 0.773
ElecMinimize: Iter:  10  F: -7125.897926889882001  |grad|_K:  1.545e-06  alpha:  3.110e-01  linmin:  2.751e-08  t[s]:   1711.48
	FillingsUpdate:  mu: +0.427408068  nElectrons: 1200.000000  magneticMoment: [ Abs: 207.66214  Tot: -0.00000 ]
	SubspaceRotationAdjust: set factor to 0.769
ElecMinimize: Iter:  11  F: -7125.898115659937503  |grad|_K:  1.263e-06  alpha:  3.693e-01  linmin:  4.019e-08  t[s]:   1783.75
	FillingsUpdate:  mu: +0.427069210  nElectrons: 1200.000000  magneticMoment: [ Abs: 207.67439  Tot: -0.00000 ]
	SubspaceRotationAdjust: set factor to 0.761
ElecMinimize: Iter:  12  F: -7125.898221080328767  |grad|_K:  7.546e-07  alpha:  3.088e-01  linmin:  7.770e-09  t[s]:   1854.98
	FillingsUpdate:  mu: +0.427298451  nElectrons: 1200.000000  magneticMoment: [ Abs: 207.68476  Tot: +0.00000 ]
	SubspaceRotationAdjust: set factor to 0.773
ElecMinimize: Iter:  13  F: -7125.898276616644580  |grad|_K:  5.581e-07  alpha:  4.555e-01  linmin:  1.495e-07  t[s]:   1926.65
	FillingsUpdate:  mu: +0.427157085  nElectrons: 1200.000000  magneticMoment: [ Abs: 207.69576  Tot: -0.00000 ]
	SubspaceRotationAdjust: set factor to 0.791
ElecMinimize: Iter:  14  F: -7125.898300167325033  |grad|_K:  4.405e-07  alpha:  3.531e-01  linmin:  1.139e-08  t[s]:   1999.25
	FillingsUpdate:  mu: +0.427239828  nElectrons: 1200.000000  magneticMoment: [ Abs: 207.70446  Tot: +0.00000 ]
	SubspaceRotationAdjust: set factor to 0.807
ElecMinimize: Iter:  15  F: -7125.898313821999182  |grad|_K:  3.065e-07  alpha:  3.287e-01  linmin:  4.896e-09  t[s]:   2071.89
	FillingsUpdate:  mu: +0.427183477  nElectrons: 1200.000000  magneticMoment: [ Abs: 207.70975  Tot: +0.00000 ]
	SubspaceRotationAdjust: set factor to 0.812
ElecMinimize: Iter:  16  F: -7125.898321168942857  |grad|_K:  2.305e-07  alpha:  3.653e-01  linmin:  2.893e-09  t[s]:   2144.51
	FillingsUpdate:  mu: +0.427155348  nElectrons: 1200.000000  magneticMoment: [ Abs: 207.71343  Tot: -0.00000 ]
	SubspaceRotationAdjust: set factor to 0.81
ElecMinimize: Iter:  17  F: -7125.898325293039306  |grad|_K:  1.602e-07  alpha:  3.625e-01  linmin:  2.628e-09  t[s]:   2216.46
	FillingsUpdate:  mu: +0.427279149  nElectrons: 1200.000000  magneticMoment: [ Abs: 207.71180  Tot: +0.00000 ]
	SubspaceRotationAdjust: set factor to 0.801
ElecMinimize: Iter:  18  F: -7125.898327356794653  |grad|_K:  1.271e-07  alpha:  3.757e-01  linmin: -1.440e-09  t[s]:   2288.37
	FillingsUpdate:  mu: +0.427180212  nElectrons: 1200.000000  magneticMoment: [ Abs: 207.71119  Tot: -0.00000 ]

Dumping 'pristine.fillings' ... done
Dumping 'pristine.wfns' ... done
Dumping 'pristine.eigenvals' ... done
	SubspaceRotationAdjust: set factor to 0.833
ElecMinimize: Iter:  19  F: -7125.898328503923949  |grad|_K:  9.001e-08  alpha:  3.314e-01  linmin: -3.360e-07  t[s]:   2364.60
	FillingsUpdate:  mu: +0.427167117  nElectrons: 1200.000000  magneticMoment: [ Abs: 207.71182  Tot: +0.00000 ]
	SubspaceRotationAdjust: set factor to 0.839
ElecMinimize: Iter:  20  F: -7125.898329182422458  |grad|_K:  6.680e-08  alpha:  3.911e-01  linmin: -2.529e-08  t[s]:   2437.65
	FillingsUpdate:  mu: +0.427179148  nElectrons: 1200.000000  magneticMoment: [ Abs: 207.71145  Tot: +0.00000 ]
	SubspaceRotationAdjust: set factor to 0.848
ElecMinimize: Iter:  21  F: -7125.898329526161433  |grad|_K:  5.046e-08  alpha:  3.597e-01  linmin: -1.913e-08  t[s]:   2509.88
	FillingsUpdate:  mu: +0.427169664  nElectrons: 1200.000000  magneticMoment: [ Abs: 207.71114  Tot: +0.00000 ]
	SubspaceRotationAdjust: set factor to 0.843
ElecMinimize: Iter:  22  F: -7125.898329712870691  |grad|_K:  3.546e-08  alpha:  3.424e-01  linmin: -6.342e-08  t[s]:   2581.17
	FillingsUpdate:  mu: +0.427268168  nElectrons: 1200.000000  magneticMoment: [ Abs: 207.71022  Tot: -0.00000 ]
	SubspaceRotationAdjust: set factor to 0.839
ElecMinimize: Iter:  23  F: -7125.898329813406235  |grad|_K:  2.559e-08  alpha:  3.734e-01  linmin: -6.623e-08  t[s]:   2652.10
	FillingsUpdate:  mu: +0.427270426  nElectrons: 1200.000000  magneticMoment: [ Abs: 207.70979  Tot: +0.00000 ]
	SubspaceRotationAdjust: set factor to 0.857
ElecMinimize: Iter:  24  F: -7125.898329863656727  |grad|_K:  1.911e-08  alpha:  3.584e-01  linmin: -9.211e-07  t[s]:   2723.31
	FillingsUpdate:  mu: +0.427171141  nElectrons: 1200.000000  magneticMoment: [ Abs: 207.70988  Tot: +0.00000 ]
	SubspaceRotationAdjust: set factor to 0.848
ElecMinimize: Iter:  25  F: -7125.898329891241701  |grad|_K:  1.446e-08  alpha:  3.524e-01  linmin: -2.167e-07  t[s]:   2795.29
ElecMinimize: Converged (|Delta F|<1.000000e-07 for 2 iters).
Setting wave functions to eigenvectors of Hamiltonian

# Ionic positions in lattice coordinates:
ion Fe1   0.166666666666667   0.333333333333333   0.020978200666667 0
ion Fe1   0.333333333333333   0.166666666666667   0.979021799333333 0
ion Fe1   0.000000000000000   0.000000000000000   0.354311534000000 0
ion Fe1   0.166666666666667   0.333333333333333   0.312355132666667 0
ion Fe1   0.333333333333333   0.166666666666667   0.687644867333333 0
ion Fe1   0.000000000000000   0.000000000000000   0.645688466000000 0
ion Fe1   0.666666666666667   0.333333333333333   0.020978200666667 0
ion Fe1   0.833333333333333   0.166666666666667   0.979021799333333 0
ion Fe1   0.500000000000000   0.000000000000000   0.354311534000000 0
ion Fe1   0.666666666666667   0.333333333333333   0.312355132666667 0
ion Fe1   0.833333333333333   0.166666666666667   0.687644867333333 0
ion Fe1   0.500000000000000   0.000000000000000   0.645688466000000 0
ion Fe1   0.166666666666667   0.833333333333333   0.020978200666667 0
ion Fe1   0.333333333333333   0.666666666666667   0.979021799333333 0
ion Fe1   0.000000000000000   0.500000000000000   0.354311534000000 0
ion Fe1   0.166666666666667   0.833333333333333   0.312355132666667 0
ion Fe1   0.333333333333333   0.666666666666667   0.687644867333333 0
ion Fe1   0.000000000000000   0.500000000000000   0.645688466000000 0
ion Fe1   0.666666666666667   0.833333333333333   0.020978200666667 0
ion Fe1   0.833333333333333   0.666666666666667   0.979021799333333 0
ion Fe1   0.500000000000000   0.500000000000000   0.354311534000000 0
ion Fe1   0.666666666666667   0.833333333333333   0.312355132666667 0
ion Fe1   0.833333333333333   0.666666666666667   0.687644867333333 0
ion Fe1   0.500000000000000   0.500000000000000   0.645688466000000 0
ion Fe2   0.000000000000000   0.000000000000000   0.145690048000000 0
ion Fe2   0.000000000000000   0.000000000000000   0.854309952000000 0
ion Fe2   0.333333333333333   0.166666666666667   0.479023381333333 0
ion Fe2   0.333333333333333   0.166666666666667   0.187643285333333 0
ion Fe2   0.166666666666667   0.333333333333333   0.812356714666667 0
ion Fe2   0.166666666666667   0.333333333333333   0.520976618666667 0
ion Fe2   0.500000000000000   0.000000000000000   0.145690048000000 0
ion Fe2   0.500000000000000   0.000000000000000   0.854309952000000 0
ion Fe2   0.833333333333333   0.166666666666667   0.479023381333333 0
ion Fe2   0.833333333333333   0.166666666666667   0.187643285333333 0
ion Fe2   0.666666666666667   0.333333333333333   0.812356714666667 0
ion Fe2   0.666666666666667   0.333333333333333   0.520976618666667 0
ion Fe2   0.000000000000000   0.500000000000000   0.145690048000000 0
ion Fe2   0.000000000000000   0.500000000000000   0.854309952000000 0
ion Fe2   0.333333333333333   0.666666666666667   0.479023381333333 0
ion Fe2   0.333333333333333   0.666666666666667   0.187643285333333 0
ion Fe2   0.166666666666667   0.833333333333333   0.812356714666667 0
ion Fe2   0.166666666666667   0.833333333333333   0.520976618666667 0
ion Fe2   0.500000000000000   0.500000000000000   0.145690048000000 0
ion Fe2   0.500000000000000   0.500000000000000   0.854309952000000 0
ion Fe2   0.833333333333333   0.666666666666667   0.479023381333333 0
ion Fe2   0.833333333333333   0.666666666666667   0.187643285333333 0
ion Fe2   0.666666666666667   0.833333333333333   0.812356714666667 0
ion Fe2   0.666666666666667   0.833333333333333   0.520976618666667 0
ion O   0.319093900055556   0.333333412388889   0.916666588000000 0
ion O   0.166666587611111   0.485760487666667   0.916666588000000 0
ion O   0.485760487666667   0.319093900055556   0.083333412000000 0
ion O   0.333333412388889   0.014239512333333   0.083333412000000 0
ion O   0.180906099944444   0.166666587611111   0.083333412000000 0
ion O   0.014239512333333   0.180906099944444   0.916666588000000 0
ion O   0.152427233388889   0.000000079055556   0.249999921333333 0
ion O  -0.000000079055556   0.152427154333333   0.249999921333333 0
ion O   0.319093821000000   0.485760566722222   0.416666745333333 0
ion O   0.166666745722222   0.180906179000000   0.416666745333333 0
ion O   0.014239433277778   0.333333254277778   0.416666745333333 0
ion O   0.347572845666667   0.347572766611111   0.249999921333333 0
ion O   0.485760566722222   0.166666745722222   0.583333254666667 0
ion O   0.333333254277778   0.319093821000000   0.583333254666667 0
ion O   0.152427154333333   0.152427233388889   0.750000078666667 0
ion O   0.000000079055556   0.347572845666667   0.750000078666667 0
ion O   0.347572766611111  -0.000000079055556   0.750000078666667 0
ion O   0.180906179000000   0.014239433277778   0.583333254666667 0
ion O   0.819093900055556   0.333333412388889   0.916666588000000 0
ion O   0.666666587611111   0.485760487666667   0.916666588000000 0
ion O   0.985760487666667   0.319093900055556   0.083333412000000 0
ion O   0.833333412388889   0.014239512333333   0.083333412000000 0
ion O   0.680906099944445   0.166666587611111   0.083333412000000 0
ion O   0.514239512333333   0.180906099944444   0.916666588000000 0
ion O   0.652427233388889   0.000000079055556   0.249999921333333 0
ion O   0.499999920944444   0.152427154333333   0.249999921333333 0
ion O   0.819093821000000   0.485760566722222   0.416666745333333 0
ion O   0.666666745722222   0.180906179000000   0.416666745333333 0
ion O   0.514239433277778   0.333333254277778   0.416666745333333 0
ion O   0.847572845666667   0.347572766611111   0.249999921333333 0
ion O   0.985760566722222   0.166666745722222   0.583333254666667 0
ion O   0.833333254277778   0.319093821000000   0.583333254666667 0
ion O   0.652427154333333   0.152427233388889   0.750000078666667 0
ion O   0.500000079055556   0.347572845666667   0.750000078666667 0
ion O   0.847572766611111  -0.000000079055556   0.750000078666667 0
ion O   0.680906179000000   0.014239433277778   0.583333254666667 0
ion O   0.319093900055556   0.833333412388889   0.916666588000000 0
ion O   0.166666587611111   0.985760487666667   0.916666588000000 0
ion O   0.485760487666667   0.819093900055556   0.083333412000000 0
ion O   0.333333412388889   0.514239512333333   0.083333412000000 0
ion O   0.180906099944444   0.666666587611111   0.083333412000000 0
ion O   0.014239512333333   0.680906099944445   0.916666588000000 0
ion O   0.152427233388889   0.500000079055556   0.249999921333333 0
ion O  -0.000000079055556   0.652427154333333   0.249999921333333 0
ion O   0.319093821000000   0.985760566722222   0.416666745333333 0
ion O   0.166666745722222   0.680906179000000   0.416666745333333 0
ion O   0.014239433277778   0.833333254277778   0.416666745333333 0
ion O   0.347572845666667   0.847572766611111   0.249999921333333 0
ion O   0.485760566722222   0.666666745722222   0.583333254666667 0
ion O   0.333333254277778   0.819093821000000   0.583333254666667 0
ion O   0.152427154333333   0.652427233388889   0.750000078666667 0
ion O   0.000000079055556   0.847572845666667   0.750000078666667 0
ion O   0.347572766611111   0.499999920944444   0.750000078666667 0
ion O   0.180906179000000   0.514239433277778   0.583333254666667 0
ion O   0.819093900055556   0.833333412388889   0.916666588000000 0
ion O   0.666666587611111   0.985760487666667   0.916666588000000 0
ion O   0.985760487666667   0.819093900055556   0.083333412000000 0
ion O   0.833333412388889   0.514239512333333   0.083333412000000 0
ion O   0.680906099944445   0.666666587611111   0.083333412000000 0
ion O   0.514239512333333   0.680906099944445   0.916666588000000 0
ion O   0.652427233388889   0.500000079055556   0.249999921333333 0
ion O   0.499999920944444   0.652427154333333   0.249999921333333 0
ion O   0.819093821000000   0.985760566722222   0.416666745333333 0
ion O   0.666666745722222   0.680906179000000   0.416666745333333 0
ion O   0.514239433277778   0.833333254277778   0.416666745333333 0
ion O   0.847572845666667   0.847572766611111   0.249999921333333 0
ion O   0.985760566722222   0.666666745722222   0.583333254666667 0
ion O   0.833333254277778   0.819093821000000   0.583333254666667 0
ion O   0.652427154333333   0.652427233388889   0.750000078666667 0
ion O   0.500000079055556   0.847572845666667   0.750000078666667 0
ion O   0.847572766611111   0.499999920944444   0.750000078666667 0
ion O   0.680906179000000   0.514239433277778   0.583333254666667 0


# Forces in Lattice coordinates:
force Fe1   0.000000000000000  -0.000000000000000   0.091860532616722 0
force Fe1  -0.000000000000000   0.000000000000000  -0.091860532616750 0
force Fe1   0.000000000000000  -0.000000000000000   0.091860532616736 0
force Fe1  -0.000000000000000  -0.000000000000000  -0.091860532616750 0
force Fe1   0.000000000000000  -0.000000000000000   0.091860532616722 0
force Fe1  -0.000000000000000   0.000000000000000  -0.091860532616722 0
force Fe1   0.000000000000000  -0.000000000000000   0.091860532616721 0
force Fe1  -0.000000000000000   0.000000000000000  -0.091860532616736 0
force Fe1   0.000000000000000  -0.000000000000000   0.091860532616750 0
force Fe1  -0.000000000000000  -0.000000000000000  -0.091860532616750 0
force Fe1   0.000000000000000   0.000000000000000   0.091860532616736 0
force Fe1   0.000000000000000   0.000000000000000  -0.091860532616765 0
force Fe1   0.000000000000000   0.000000000000000   0.091860532616764 0
force Fe1  -0.000000000000000  -0.000000000000000  -0.091860532616750 0
force Fe1   0.000000000000000  -0.000000000000000   0.091860532616722 0
force Fe1   0.000000000000000  -0.000000000000000  -0.091860532616722 0
force Fe1  -0.000000000000000  -0.000000000000000   0.091860532616779 0
force Fe1  -0.000000000000000  -0.000000000000000  -0.091860532616750 0
force Fe1   0.000000000000000  -0.000000000000000   0.091860532616736 0
force Fe1  -0.000000000000000   0.000000000000000  -0.091860532616750 0
force Fe1   0.000000000000000  -0.000000000000000   0.091860532616750 0
force Fe1  -0.000000000000000   0.000000000000000  -0.091860532616722 0
force Fe1   0.000000000000000  -0.000000000000000   0.091860532616736 0
force Fe1  -0.000000000000000   0.000000000000000  -0.091860532616736 0
force Fe2  -0.000000000000000  -0.000000000000000  -0.010934356675033 0
force Fe2  -0.000000000000000   0.000000000000000   0.010934356675004 0
force Fe2   0.000000000000000  -0.000000000000000  -0.010934356675033 0
force Fe2  -0.000000000000000   0.000000000000000   0.010934356675004 0
force Fe2   0.000000000000000   0.000000000000000  -0.010934356675018 0
force Fe2   0.000000000000000   0.000000000000000   0.010934356675004 0
force Fe2  -0.000000000000000  -0.000000000000000  -0.010934356675032 0
force Fe2  -0.000000000000000   0.000000000000000   0.010934356675018 0
force Fe2   0.000000000000000  -0.000000000000000  -0.010934356675046 0
force Fe2  -0.000000000000000  -0.000000000000000   0.010934356675004 0
force Fe2   0.000000000000000  -0.000000000000000  -0.010934356675019 0
force Fe2  -0.000000000000000  -0.000000000000000   0.010934356675018 0
force Fe2   0.000000000000000   0.000000000000000  -0.010934356675004 0
force Fe2  -0.000000000000000   0.000000000000000   0.010934356675018 0
force Fe2   0.000000000000000  -0.000000000000000  -0.010934356675018 0
force Fe2  -0.000000000000000  -0.000000000000000   0.010934356675033 0
force Fe2  -0.000000000000000   0.000000000000000  -0.010934356675018 0
force Fe2  -0.000000000000000   0.000000000000000   0.010934356675018 0
force Fe2   0.000000000000000  -0.000000000000000  -0.010934356675004 0
force Fe2   0.000000000000000   0.000000000000000   0.010934356675032 0
force Fe2  -0.000000000000000  -0.000000000000000  -0.010934356675033 0
force Fe2  -0.000000000000000   0.000000000000000   0.010934356675018 0
force Fe2  -0.000000000000000  -0.000000000000000  -0.010934356675018 0
force Fe2   0.000000000000000  -0.000000000000000   0.010934356675018 0
force O   0.006361293461646  -0.003216758930168  -0.000722916984329 0
force O  -0.003144534531465   0.006361293461639  -0.000722916984329 0
force O   0.003216758930166   0.003144534531469   0.000722916984329 0
force O   0.003144534531471  -0.006361293461646   0.000722916984329 0
force O  -0.006361293461642   0.003216758930172   0.000722916984329 0
force O  -0.003216758930175  -0.003144534531467  -0.000722916984329 0
force O   0.006361293461642  -0.003216758930168  -0.000722916984329 0
force O  -0.003144534531465   0.006361293461639  -0.000722916984329 0
force O   0.003216758930168   0.003144534531467   0.000722916984329 0
force O   0.003144534531467  -0.006361293461642   0.000722916984329 0
force O  -0.006361293461639   0.003216758930172   0.000722916984329 0
force O  -0.003216758930177  -0.003144534531469  -0.000722916984329 0
force O   0.006361293461653  -0.003216758930170  -0.000722916984329 0
force O  -0.003144534531465   0.006361293461646  -0.000722916984329 0
force O   0.003216758930172   0.003144534531467   0.000722916984329 0
force O   0.003144534531469  -0.006361293461642   0.000722916984329 0
force O  -0.006361293461646   0.003216758930170   0.000722916984329 0
force O  -0.003216758930177  -0.003144534531471  -0.000722916984329 0
force O   0.006361293461646  -0.003216758930170  -0.000722916984329 0
force O  -0.003144534531471   0.006361293461650  -0.000722916984329 0
force O   0.003216758930170   0.003144534531467   0.000722916984329 0
force O   0.003144534531471  -0.006361293461635   0.000722916984329 0
force O  -0.006361293461639   0.003216758930168   0.000722916984329 0
force O  -0.003216758930175  -0.003144534531469  -0.000722916984329 0
force O   0.006361293461642  -0.003216758930170  -0.000722916984329 0
force O  -0.003144534531465   0.006361293461646  -0.000722916984329 0
force O   0.003216758930173   0.003144534531469   0.000722916984329 0
force O   0.003144534531473  -0.006361293461639   0.000722916984329 0
force O  -0.006361293461639   0.003216758930170   0.000722916984329 0
force O  -0.003216758930175  -0.003144534531467  -0.000722916984329 0
force O   0.006361293461649  -0.003216758930170  -0.000722916984329 0
force O  -0.003144534531465   0.006361293461642  -0.000722916984329 0
force O   0.003216758930172   0.003144534531473   0.000722916984329 0
force O   0.003144534531471  -0.006361293461642   0.000722916984329 0
force O  -0.006361293461646   0.003216758930172   0.000722916984329 0
force O  -0.003216758930170  -0.003144534531465  -0.000722916984329 0
force O   0.006361293461653  -0.003216758930168  -0.000722916984329 0
force O  -0.003144534531465   0.006361293461642  -0.000722916984329 0
force O   0.003216758930170   0.003144534531469   0.000722916984329 0
force O   0.003144534531469  -0.006361293461642   0.000722916984329 0
force O  -0.006361293461650   0.003216758930172   0.000722916984329 0
force O  -0.003216758930172  -0.003144534531465  -0.000722916984329 0
force O   0.006361293461646  -0.003216758930168  -0.000722916984329 0
force O  -0.003144534531465   0.006361293461642  -0.000722916984329 0
force O   0.003216758930173   0.003144534531469   0.000722916984329 0
force O   0.003144534531469  -0.006361293461646   0.000722916984329 0
force O  -0.006361293461639   0.003216758930170   0.000722916984329 0
force O  -0.003216758930173  -0.003144534531474  -0.000722916984329 0
force O   0.006361293461646  -0.003216758930168  -0.000722916984329 0
force O  -0.003144534531467   0.006361293461635  -0.000722916984329 0
force O   0.003216758930175   0.003144534531465   0.000722916984329 0
force O   0.003144534531471  -0.006361293461635   0.000722916984329 0
force O  -0.006361293461646   0.003216758930166   0.000722916984329 0
force O  -0.003216758930172  -0.003144534531467  -0.000722916984329 0
force O   0.006361293461642  -0.003216758930170  -0.000722916984329 0
force O  -0.003144534531464   0.006361293461642  -0.000722916984329 0
force O   0.003216758930172   0.003144534531467   0.000722916984329 0
force O   0.003144534531471  -0.006361293461642   0.000722916984329 0
force O  -0.006361293461642   0.003216758930170   0.000722916984329 0
force O  -0.003216758930173  -0.003144534531465  -0.000722916984329 0
force O   0.006361293461649  -0.003216758930168  -0.000722916984329 0
force O  -0.003144534531465   0.006361293461642  -0.000722916984329 0
force O   0.003216758930170   0.003144534531467   0.000722916984329 0
force O   0.003144534531473  -0.006361293461639   0.000722916984329 0
force O  -0.006361293461639   0.003216758930166   0.000722916984329 0
force O  -0.003216758930173  -0.003144534531467  -0.000722916984329 0
force O   0.006361293461642  -0.003216758930168  -0.000722916984329 0
force O  -0.003144534531465   0.006361293461650  -0.000722916984329 0
force O   0.003216758930170   0.003144534531465   0.000722916984329 0
force O   0.003144534531467  -0.006361293461649   0.000722916984329 0
force O  -0.006361293461635   0.003216758930168   0.000722916984329 0
force O  -0.003216758930173  -0.003144534531467  -0.000722916984329 0

# Energy components:
   Eewald =    -4484.2854434810033126
       EH =     2267.9684870928722376
     Eloc =    -6514.7278918639085532
      Enl =     1069.6583528149003541
      Exc =     -963.7859743893814084
 Exc_core =       42.3864465671663808
       KE =     1454.0546250780557784
        U =        2.8330682900567385
-------------------------------------
     Etot =    -7125.8983298912417013
       TS =        0.0000000000000013
-------------------------------------
        F =    -7125.8983298912417013

IonicMinimize: Iter:   0  F: -7125.898329891241701  |grad|_K:  0.000e+00  t[s]:   2841.08
IonicMinimize: Converged (|grad|_K<1.000000e-04).

#--- Lowdin population analysis ---
# oxidation-state Fe1 +0.764 +0.764 +0.764 +0.764 +0.764 +0.764 +0.764 +0.764 +0.764 +0.764 +0.764 +0.764 +0.764 +0.764 +0.764 +0.764 +0.764 +0.764 +0.764 +0.764 +0.764 +0.764 +0.764 +0.764
# magnetic-moments Fe1 -4.223 -4.223 -4.223 -4.223 -4.223 -4.223 -4.223 -4.223 -4.223 -4.223 -4.223 -4.223 -4.223 -4.223 -4.223 -4.223 -4.223 -4.223 -4.223 -4.223 -4.223 -4.223 -4.223 -4.223
# oxidation-state Fe2 +0.764 +0.764 +0.764 +0.764 +0.764 +0.764 +0.764 +0.764 +0.764 +0.764 +0.764 +0.764 +0.764 +0.764 +0.764 +0.764 +0.764 +0.764 +0.764 +0.764 +0.764 +0.764 +0.764 +0.764
# magnetic-moments Fe2 +4.222 +4.222 +4.222 +4.222 +4.222 +4.222 +4.222 +4.222 +4.222 +4.222 +4.222 +4.222 +4.222 +4.222 +4.222 +4.222 +4.222 +4.222 +4.222 +4.222 +4.222 +4.222 +4.222 +4.222
# oxidation-state O -0.476 -0.476 -0.476 -0.476 -0.476 -0.476 -0.476 -0.476 -0.476 -0.476 -0.476 -0.476 -0.476 -0.476 -0.476 -0.476 -0.476 -0.476 -0.476 -0.476 -0.476 -0.476 -0.476 -0.476 -0.476 -0.476 -0.476 -0.476 -0.476 -0.476 -0.476 -0.476 -0.476 -0.476 -0.476 -0.476 -0.476 -0.476 -0.476 -0.476 -0.476 -0.476 -0.476 -0.476 -0.476 -0.476 -0.476 -0.476 -0.476 -0.476 -0.476 -0.476 -0.476 -0.476 -0.476 -0.476 -0.476 -0.476 -0.476 -0.476 -0.476 -0.476 -0.476 -0.476 -0.476 -0.476 -0.476 -0.476 -0.476 -0.476 -0.476 -0.476
# magnetic-moments O +0.000 +0.000 +0.000 +0.000 +0.000 +0.000 +0.000 +0.000 +0.000 +0.000 +0.000 +0.000 +0.000 +0.000 +0.000 +0.000 +0.000 +0.000 +0.000 +0.000 +0.000 +0.000 +0.000 +0.000 +0.000 +0.000 +0.000 +0.000 +0.000 +0.000 +0.000 +0.000 +0.000 +0.000 +0.000 +0.000 +0.000 +0.000 +0.000 +0.000 +0.000 +0.000 +0.000 +0.000 +0.000 +0.000 +0.000 +0.000 +0.000 +0.000 +0.000 +0.000 +0.000 +0.000 +0.000 +0.000 +0.000 +0.000 +0.000 +0.000 +0.000 +0.000 +0.000 +0.000 +0.000 +0.000 +0.000 +0.000 +0.000 +0.000 +0.000 +0.000


Dumping 'pristine.fillings' ... done
Dumping 'pristine.wfns' ... done
Dumping 'pristine.d_tot' ... done
Dumping 'pristine.eigenvals' ... done
Dumping 'pristine.eigStats' ... 
	eMin: -2.987098 at state 4 ( [ +0.000000 +0.000000 +0.000000 ] spin -1 )
	HOMO: +0.355307 at state 6 ( [ +0.000000 +0.500000 +0.000000 ] spin -1 )
	mu  : +0.427171
	LUMO: +0.436632 at state 4 ( [ +0.000000 +0.000000 +0.000000 ] spin -1 )
	eMax: +0.477946 at state 0 ( [ +0.000000 +0.000000 +0.000000 ] spin 1 )
	HOMO-LUMO gap: +0.081325
	Optical gap  : +0.083460 at state 7 ( [ +0.000000 +0.500000 +0.500000 ] spin -1 )
Dumping 'pristine.Ecomponents' ... done
End date and time: Fri Apr 10 18:42:07 2020  (Duration: 0-0:47:35.14)
Done!

PROFILER:             augmentDensityGrid     1.802702 +/-     0.872634 s,  261 calls,    470.505181 s total
PROFILER:         augmentDensityGridGrad     4.140247 +/-     2.514606 s,  135 calls,    558.933334 s total
PROFILER:        augmentDensitySpherical     0.066138 +/-     0.037248 s,  261 calls,     17.262141 s total
PROFILER:    augmentDensitySphericalGrad     0.108943 +/-     0.052996 s,  135 calls,     14.707242 s total
PROFILER:                 augmentOverlap     1.187577 +/-     0.416146 s,  315 calls,    374.086815 s total
PROFILER:                     changeGrid     0.005454 +/-     0.001305 s,  175 calls,      0.954388 s total
PROFILER:        ColumnBundle::randomize     0.005570 +/-     0.000000 s,    1 calls,      0.005570 s total
PROFILER:                     diagouterI     2.242007 +/-     0.279523 s,   87 calls,    195.054622 s total
PROFILER:              EdensityAndVscloc     0.696100 +/-     0.065123 s,   88 calls,     61.256842 s total
PROFILER:                     EnlAndGrad     0.247377 +/-     0.135899 s,  162 calls,     40.075015 s total
PROFILER:            ExCorrCommunication     0.049463 +/-     0.045371 s,  541 calls,     26.759278 s total
PROFILER:               ExCorrFunctional     0.045861 +/-     0.006884 s,   92 calls,      4.219221 s total
PROFILER:                    ExCorrTotal     0.425270 +/-     0.079005 s,   92 calls,     39.124867 s total
PROFILER:                   Idag_DiagV_I     3.872236 +/-     0.440701 s,   44 calls,    170.378405 s total
PROFILER:                    inv(matrix)     0.299945 +/-     0.052933 s,   51 calls,     15.297170 s total
PROFILER:            matrix::diagonalize     0.333489 +/-     0.303579 s,  322 calls,    107.383350 s total
PROFILER:     RadialFunctionR::transform     0.003348 +/-     0.007837 s,  148 calls,      0.495574 s total
PROFILER:                    reduceKmesh     0.010454 +/-     0.000000 s,    1 calls,      0.010454 s total
PROFILER:                   rhoAtom_calc     0.677444 +/-     0.487917 s,  261 calls,    176.812887 s total
PROFILER:                   rhoAtom_grad     0.332393 +/-     0.242613 s,  129 calls,     42.878689 s total
PROFILER:               WavefunctionDrag     8.293425 +/-     0.000000 s,    1 calls,      8.293425 s total
PROFILER:                            Y*M     0.556318 +/-     0.239961 s,  774 calls,    430.589935 s total
PROFILER:                          Y1^Y2     0.457181 +/-     0.248718 s,  720 calls,    329.170368 s total

MEMUSAGE:                   ColumnBundle     3.355159 GB
MEMUSAGE:             complexScalarField     0.037079 GB
MEMUSAGE:        complexScalarFieldTilde     0.082397 GB
MEMUSAGE:                    IndexArrays     0.060816 GB
MEMUSAGE:                         matrix     0.191703 GB
MEMUSAGE:                           misc     0.261491 GB
MEMUSAGE:                    ScalarField     0.194664 GB
MEMUSAGE:               ScalarFieldTilde     0.093384 GB
MEMUSAGE:                          Total     3.826605 GB
