
     Program PWSCF v.6.1 (svn rev. 13369) starts on 10Feb2021 at 22:56:58 

     This program is part of the open-source Quantum ESPRESSO suite
     for quantum simulation of materials; please cite
         "P. Giannozzi et al., J. Phys.:Condens. Matter 21 395502 (2009);
          URL http://www.quantum-espresso.org", 
     in publications or presentations arising from this work. More details at
     http://www.quantum-espresso.org/quote

     Parallel version (MPI), running on   160 processors
     K-points division:     npool     =       2
     R & G space division:  proc/nbgrp/npool/nimage =      80
     Reading input from scf.in
Warning: card &CELL ignored
Warning: card / ignored
Warning: card &IONS ignored
Warning: card / ignored

     Current dimensions of program PWSCF are:
     Max number of different atomic species (ntypx) = 10
     Max number of k-points (npk) = 120000
     Max angular momentum in pseudopotentials (lmaxx) =  3

     Subspace diagonalization in iterative solution of the eigenvalue problem:
     a serial algorithm will be used

 
     Parallelization info
     --------------------
     sticks:   dense  smooth     PW     G-vecs:    dense   smooth      PW
     Min         153     153     38                14461    14461    1806
     Max         154     154     39                14464    14464    1813
     Sum       12259   12259   3067              1156971  1156971  144701
 


     bravais-lattice index     =            0
     lattice parameter (alat)  =      28.4287  a.u.
     unit-cell volume          =   20997.3881 (a.u.)^3
     number of atoms/cell      =           72
     number of atomic types    =            3
     number of electrons       =       288.00 (up: 144.00, down: 144.00)
     number of Kohn-Sham states=          168
     kinetic-energy cutoff     =      55.0000  Ry
     charge density cutoff     =     220.0000  Ry
     convergence threshold     =      1.0E-08
     mixing beta               =       0.7000
     number of iterations used =            8  plain     mixing
     Exchange-correlation      = PBE ( 1  4  3  4 0 0)

     celldm(1)=  28.428666  celldm(2)=   0.000000  celldm(3)=   0.000000
     celldm(4)=   0.000000  celldm(5)=   0.000000  celldm(6)=   0.000000

     crystal axes: (cart. coord. in units of alat)
               a(1) = (   1.000000   0.000000   0.000000 )  
               a(2) = (  -0.499999   0.866026   0.000000 )  
               a(3) = (   0.000000   0.000000   1.055273 )  

     reciprocal axes: (cart. coord. in units 2 pi/alat)
               b(1) = (  1.000000  0.577349  0.000000 )  
               b(2) = (  0.000000  1.154700  0.000000 )  
               b(3) = (  0.000000  0.000000  0.947622 )  


     PseudoPot. # 1 for B  read from file:
     ~/pseudo-ONCV-proj/B_ONCV_PBE-1.0.upf
     MD5 check sum: Not computed, couldn't open file
     Pseudo is Norm-conserving, Zval =  3.0
     Generated using ONCVPSP code by D. R. Hamann
     Using radial grid of 1534 points,  4 beta functions with: 
                l(1) =   0
                l(2) =   0
                l(3) =   1
                l(4) =   1

     PseudoPot. # 2 for N  read from file:
     ~/pseudo-ONCV-proj/N_ONCV_PBE-1.0.upf
     MD5 check sum: Not computed, couldn't open file
     Pseudo is Norm-conserving, Zval =  5.0
     Generated using ONCVPSP code by D. R. Hamann
     Using radial grid of 1058 points,  4 beta functions with: 
                l(1) =   0
                l(2) =   0
                l(3) =   1
                l(4) =   1

     PseudoPot. # 3 for C  read from file:
     ~/pseudo-ONCV-proj/C_ONCV_PBE-1.0.upf
     MD5 check sum: Not computed, couldn't open file
     Pseudo is Norm-conserving, Zval =  4.0
     Generated using ONCVPSP code by D. R. Hamann
     Using radial grid of 1248 points,  4 beta functions with: 
                l(1) =   0
                l(2) =   0
                l(3) =   1
                l(4) =   1

     atomic species   valence    mass     pseudopotential
        B              3.00    10.81100     B ( 1.00)
        N              5.00    14.00674     N ( 1.00)
        C              4.00    12.01070     C ( 1.00)

     Starting magnetic structure 
     atomic species   magnetization
        B            1.000
        N            0.000
        C            0.000

      2 Sym. Ops. (no inversion) found


                                    s                        frac. trans.

      isym =  1     identity                                     

 cryst.   s( 1) = (     1          0          0      )
                  (     0          1          0      )
                  (     0          0          1      )

 cart.    s( 1) = (  1.0000000 -0.0000000  0.0000000 )
                  (  0.0000000  1.0000000  0.0000000 )
                  (  0.0000000  0.0000000  1.0000000 )


      isym =  2     inv. 180 deg rotation - cart. axis [0,0,1]   

 cryst.   s( 2) = (     1          0          0      )
                  (     0          1          0      )
                  (     0          0         -1      )

 cart.    s( 2) = (  1.0000000 -0.0000000  0.0000000 )
                  (  0.0000000  1.0000000  0.0000000 )
                  (  0.0000000  0.0000000 -1.0000000 )


   Cartesian axes

     site n.     atom                  positions (alat units)
         1           B   tau(   1) = (  -0.0000953   0.0960019   0.5276366  )
         2           B   tau(   2) = (  -0.0833842   0.2404280   0.5276366  )
         3           B   tau(   3) = (  -0.1668083   0.3849232   0.5276366  )
         4           B   tau(   4) = (  -0.2502402   0.5292668   0.5276366  )
         5           B   tau(   5) = (  -0.3333062   0.6736008   0.5276366  )
         6           B   tau(   6) = (  -0.4166307   0.8179235   0.5276366  )
         7           B   tau(   7) = (   0.1666676   0.0959679   0.5276366  )
         8           B   tau(   8) = (   0.0831178   0.2400932   0.5276366  )
         9           B   tau(   9) = (   0.0000845   0.3849488   0.5276366  )
        10           B   tau(  10) = (  -0.0838472   0.5292857   0.5276366  )
        11           B   tau(  11) = (  -0.1668881   0.6737048   0.5276366  )
        12           B   tau(  12) = (  -0.2500072   0.8179085   0.5276366  )
        13           B   tau(  13) = (   0.3334427   0.0959777   0.5276366  )
        14           B   tau(  14) = (   0.2504367   0.2395894   0.5276366  )
        15           B   tau(  15) = (   0.1672809   0.3829087   0.5276366  )
        16           B   tau(  16) = (   0.0819160   0.5307653   0.5276366  )
        17           B   tau(  17) = (  -0.0006238   0.6744401   0.5276366  )
        18           B   tau(  18) = (  -0.0834919   0.8181314   0.5276366  )
        19           B   tau(  19) = (   0.5000062   0.0962285   0.5276366  )
        20           B   tau(  20) = (   0.4164225   0.2407343   0.5276366  )
        21           B   tau(  21) = (   0.3323365   0.3851719   0.5276366  )
        22           B   tau(  22) = (   0.1664040   0.6725761   0.5276366  )
        23           B   tau(  23) = (   0.0833608   0.8176157   0.5276366  )
        24           B   tau(  24) = (   0.6666405   0.0961410   0.5276366  )
        25           B   tau(  25) = (   0.5832478   0.2405818   0.5276366  )
        26           B   tau(  26) = (   0.4999549   0.3850577   0.5276366  )
        27           B   tau(  27) = (   0.4171494   0.5298343   0.5276366  )
        28           B   tau(  28) = (   0.3340916   0.6736950   0.5276366  )
        29           B   tau(  29) = (   0.2501145   0.8177951   0.5276366  )
        30           B   tau(  30) = (   0.8332746   0.0961490   0.5276366  )
        31           B   tau(  31) = (   0.7499537   0.2405357   0.5276366  )
        32           B   tau(  32) = (   0.6665720   0.3848873   0.5276366  )
        33           B   tau(  33) = (   0.5832380   0.5292646   0.5276366  )
        34           B   tau(  34) = (   0.5005056   0.6738670   0.5276366  )
        35           B   tau(  35) = (   0.4166427   0.8178169   0.5276366  )
        36           N   tau(  36) = (   0.0832182   0.0479490   0.5276366  )
        37           N   tau(  37) = (  -0.0002861   0.1920094   0.5276366  )
        38           N   tau(  38) = (  -0.0833678   0.3367675   0.5276366  )
        39           N   tau(  39) = (  -0.1671908   0.4810976   0.5276366  )
        40           N   tau(  40) = (  -0.2501983   0.6254450   0.5276366  )
        41           N   tau(  41) = (  -0.3334103   0.7697558   0.5276366  )
        42           N   tau(  42) = (   0.2500352   0.0479553   0.5276366  )
        43           N   tau(  43) = (   0.1666530   0.1918889   0.5276366  )
        44           N   tau(  44) = (   0.0831747   0.3359347   0.5276366  )
        45           N   tau(  45) = (  -0.0008176   0.4814141   0.5276366  )
        46           N   tau(  46) = (  -0.0838254   0.6257315   0.5276366  )
        47           N   tau(  47) = (  -0.1667842   0.7699096   0.5276366  )
        48           N   tau(  48) = (   0.4168056   0.0481925   0.5276366  )
        49           N   tau(  49) = (   0.3338027   0.1918422   0.5276366  )
        50           N   tau(  50) = (   0.2506739   0.3348383   0.5276366  )
        51           N   tau(  51) = (   0.0819826   0.6270209   0.5276366  )
        52           N   tau(  52) = (  -0.0002909   0.7705108   0.5276366  )
        53           N   tau(  53) = (   0.5834869   0.0479111   0.5276366  )
        54           N   tau(  54) = (   0.4999027   0.1926835   0.5276366  )
        55           N   tau(  55) = (   0.4160611   0.3377255   0.5276366  )
        56           N   tau(  56) = (   0.3325271   0.4834619   0.5276366  )
        57           N   tau(  57) = (   0.2516208   0.6235960   0.5276366  )
        58           N   tau(  58) = (   0.1671768   0.7688070   0.5276366  )
        59           N   tau(  59) = (   0.7499192   0.0478784   0.5276366  )
        60           N   tau(  60) = (   0.6665690   0.1923935   0.5276366  )
        61           N   tau(  61) = (   0.5830907   0.3368346   0.5276366  )
        62           N   tau(  62) = (   0.4997660   0.4811661   0.5276366  )
        63           N   tau(  63) = (   0.4173352   0.6258486   0.5276366  )
        64           N   tau(  64) = (   0.3332522   0.7695772   0.5276366  )
        65           N   tau(  65) = (   0.9164670   0.0478857   0.5276366  )
        66           N   tau(  66) = (   0.8331801   0.1923554   0.5276366  )
        67           N   tau(  67) = (   0.7498417   0.3367021   0.5276366  )
        68           N   tau(  68) = (   0.6663711   0.4810657   0.5276366  )
        69           N   tau(  69) = (   0.5834251   0.6254662   0.5276366  )
        70           N   tau(  70) = (   0.5000492   0.7698780   0.5276366  )
        71           C   tau(  71) = (   0.2527826   0.5308441   0.5276366  )
        72           C   tau(  72) = (   0.1694874   0.4827535   0.5276366  )

   Crystallographic axes

     site n.     atom                  positions (cryst. coord.)
         1           B   tau(   1) = (  0.0553313  0.1108534  0.5000000  )
         2           B   tau(   2) = (  0.0554266  0.2776222  0.5000000  )
         3           B   tau(   3) = (  0.0554266  0.4444708  0.5000000  )
         4           B   tau(   4) = (  0.0553313  0.6111443  0.5000000  )
         5           B   tau(   5) = (  0.0555964  0.7778067  0.5000000  )
         6           B   tau(   6) = (  0.0555964  0.9444561  0.5000000  )
         7           B   tau(   7) = (  0.2220745  0.1108141  0.5000000  )
         8           B   tau(   8) = (  0.2217352  0.2772355  0.5000000  )
         9           B   tau(   9) = (  0.2223342  0.4445002  0.5000000  )
        10           B   tau(  10) = (  0.2217352  0.6111661  0.5000000  )
        11           B   tau(  11) = (  0.2220746  0.7779268  0.5000000  )
        12           B   tau(  12) = (  0.2222112  0.9444388  0.5000000  )
        13           B   tau(  13) = (  0.3888553  0.1108254  0.5000000  )
        14           B   tau(  14) = (  0.3887633  0.2766538  0.5000000  )
        15           B   tau(  15) = (  0.3883527  0.4421445  0.5000000  )
        16           B   tau(  16) = (  0.3883527  0.6128745  0.5000000  )
        17           B   tau(  17) = (  0.3887633  0.7787758  0.5000000  )
        18           B   tau(  18) = (  0.3888553  0.9446962  0.5000000  )
        19           B   tau(  19) = (  0.5555636  0.1111150  0.5000000  )
        20           B   tau(  20) = (  0.5554101  0.2779759  0.5000000  )
        21           B   tau(  21) = (  0.5547150  0.4447579  0.5000000  )
        22           B   tau(  22) = (  0.5547150  0.7766234  0.5000000  )
        23           B   tau(  23) = (  0.5554101  0.9441006  0.5000000  )
        24           B   tau(  24) = (  0.7221473  0.1110140  0.5000000  )
        25           B   tau(  25) = (  0.7221474  0.2777997  0.5000000  )
        26           B   tau(  26) = (  0.7222675  0.4446261  0.5000000  )
        27           B   tau(  27) = (  0.7230485  0.6117995  0.5000000  )
        28           B   tau(  28) = (  0.7230485  0.7779154  0.5000000  )
        29           B   tau(  29) = (  0.7222675  0.9443078  0.5000000  )
        30           B   tau(  30) = (  0.8887861  0.1110233  0.5000000  )
        31           B   tau(  31) = (  0.8888267  0.2777465  0.5000000  )
        32           B   tau(  32) = (  0.8887861  0.4444292  0.5000000  )
        33           B   tau(  33) = (  0.8888083  0.6111417  0.5000000  )
        34           B   tau(  34) = (  0.8895618  0.7781141  0.5000000  )
        35           B   tau(  35) = (  0.8888082  0.9443329  0.5000000  )
        36           N   tau(  36) = (  0.1109015  0.0553667  0.5000000  )
        37           N   tau(  37) = (  0.1105703  0.2217133  0.5000000  )
        38           N   tau(  38) = (  0.1110645  0.3888654  0.5000000  )
        39           N   tau(  39) = (  0.1105703  0.5555233  0.5000000  )
        40           N   tau(  40) = (  0.1109015  0.7222011  0.5000000  )
        41           N   tau(  41) = (  0.1110073  0.8888368  0.5000000  )
        42           N   tau(  42) = (  0.2777222  0.0553740  0.5000000  )
        43           N   tau(  43) = (  0.2774398  0.2215741  0.5000000  )
        44           N   tau(  44) = (  0.2771262  0.3879037  0.5000000  )
        45           N   tau(  45) = (  0.2771262  0.5558888  0.5000000  )
        46           N   tau(  46) = (  0.2774398  0.7225320  0.5000000  )
        47           N   tau(  47) = (  0.2777222  0.8890145  0.5000000  )
        48           N   tau(  48) = (  0.4446295  0.0556479  0.5000000  )
        49           N   tau(  49) = (  0.4445625  0.2215201  0.5000000  )
        50           N   tau(  50) = (  0.4439923  0.3866377  0.5000000  )
        51           N   tau(  51) = (  0.4439923  0.7240209  0.5000000  )
        52           N   tau(  52) = (  0.4445625  0.8897086  0.5000000  )
        53           N   tau(  53) = (  0.6111483  0.0553230  0.5000000  )
        54           N   tau(  54) = (  0.6111483  0.2224916  0.5000000  )
        55           N   tau(  55) = (  0.6110465  0.3899715  0.5000000  )
        56           N   tau(  56) = (  0.6116531  0.5582533  0.5000000  )
        57           N   tau(  57) = (  0.6116531  0.7200661  0.5000000  )
        58           N   tau(  58) = (  0.6110465  0.8877413  0.5000000  )
        59           N   tau(  59) = (  0.7775618  0.0552852  0.5000000  )
        60           N   tau(  60) = (  0.7776472  0.2221567  0.5000000  )
        61           N   tau(  61) = (  0.7775618  0.3889429  0.5000000  )
        62           N   tau(  62) = (  0.7775666  0.5556023  0.5000000  )
        63           N   tau(  63) = (  0.7786680  0.7226672  0.5000000  )
        64           N   tau(  64) = (  0.7775666  0.8886305  0.5000000  )
        65           N   tau(  65) = (  0.9441137  0.0552936  0.5000000  )
        66           N   tau(  66) = (  0.9442362  0.2221127  0.5000000  )
        67           N   tau(  67) = (  0.9442362  0.3887898  0.5000000  )
        68           N   tau(  68) = (  0.9441138  0.5554865  0.5000000  )
        69           N   tau(  69) = (  0.9445372  0.7222256  0.5000000  )
        70           N   tau(  70) = (  0.9445372  0.8889779  0.5000000  )
        71           C   tau(  71) = (  0.5592648  0.6129656  0.5000000  )
        72           C   tau(  72) = (  0.4482045  0.5574354  0.5000000  )

     number of k points=     1
                       cart. coord. in units 2pi/alat
        k(    1) = (   0.0000000   0.0000000   0.0000000), wk =   1.0000000

                       cryst. coord.
        k(    1) = (   0.0000000   0.0000000   0.0000000), wk =   1.0000000

     Dense  grid:  1156971 G-vectors     FFT dimensions: ( 135, 135, 144)

     Estimated max dynamical RAM per process >      68.84MB

     Estimated total allocated dynamical RAM >   11014.86MB
     Generating pointlists ...
     new r_m :   0.0393 (alat units)  1.1170 (a.u.) for type    1
     new r_m :   0.0383 (alat units)  1.0878 (a.u.) for type    2
     new r_m :   0.0383 (alat units)  1.0878 (a.u.) for type    3

     Initial potential from superposition of free atoms
     Check: negative starting charge=(component1):   -0.001385
     Check: negative starting charge=(component2):   -0.001913

     starting charge  287.99093, renormalised to  288.00000

     negative rho (up, down):  1.385E-03 1.913E-03
     Starting wfc are  288 randomized atomic wfcs

     total cpu time spent up to now is        2.9 secs

     per-process dynamical memory:    91.4 Mb

     Self-consistent Calculation

     iteration #  1     ecut=    55.00 Ry     beta=0.70
     Davidson diagonalization with overlap
     ethr =  1.00E-02,  avg # of iterations =  2.5

     negative rho (up, down):  1.552E-04 3.038E-04

     total cpu time spent up to now is        4.3 secs

     total energy              =    -916.55658024 Ry
     Harris-Foulkes estimate   =    -922.74104696 Ry
     estimated scf accuracy    <      17.35338919 Ry

     total magnetization       =     0.00 Bohr mag/cell
     absolute magnetization    =    18.29 Bohr mag/cell

     iteration #  2     ecut=    55.00 Ry     beta=0.70
     Davidson diagonalization with overlap
     ethr =  6.03E-03,  avg # of iterations =  3.0

     negative rho (up, down):  6.410E-05 1.175E-04

     total cpu time spent up to now is        5.7 secs

     total energy              =    -921.46967433 Ry
     Harris-Foulkes estimate   =    -925.97206313 Ry
     estimated scf accuracy    <      10.42913571 Ry

     total magnetization       =    -0.00 Bohr mag/cell
     absolute magnetization    =    13.60 Bohr mag/cell

     iteration #  3     ecut=    55.00 Ry     beta=0.70
     Davidson diagonalization with overlap
     ethr =  3.62E-03,  avg # of iterations =  3.0

     negative rho (up, down):  5.745E-06 1.181E-05

     total cpu time spent up to now is        6.9 secs

     total energy              =    -923.56610784 Ry
     Harris-Foulkes estimate   =    -923.53569630 Ry
     estimated scf accuracy    <       0.44113526 Ry

     total magnetization       =     0.00 Bohr mag/cell
     absolute magnetization    =     8.66 Bohr mag/cell

     iteration #  4     ecut=    55.00 Ry     beta=0.70
     Davidson diagonalization with overlap
     c_bands:  1 eigenvalues not converged
     ethr =  1.53E-04,  avg # of iterations = 18.5

     total cpu time spent up to now is       11.0 secs

     total energy              =    -923.76978723 Ry
     Harris-Foulkes estimate   =    -923.96049861 Ry
     estimated scf accuracy    <       0.68287174 Ry

     total magnetization       =     0.00 Bohr mag/cell
     absolute magnetization    =     5.30 Bohr mag/cell

     iteration #  5     ecut=    55.00 Ry     beta=0.70
     Davidson diagonalization with overlap
     ethr =  1.53E-04,  avg # of iterations =  7.0

     negative rho (up, down):  6.933E-09 1.130E-08

     total cpu time spent up to now is       12.8 secs

     total energy              =    -923.89999444 Ry
     Harris-Foulkes estimate   =    -923.90213080 Ry
     estimated scf accuracy    <       0.03601871 Ry

     total magnetization       =     0.00 Bohr mag/cell
     absolute magnetization    =     3.55 Bohr mag/cell

     iteration #  6     ecut=    55.00 Ry     beta=0.70
     Davidson diagonalization with overlap
     ethr =  1.25E-05,  avg # of iterations =  8.5

     total cpu time spent up to now is       14.9 secs

     total energy              =    -923.92052331 Ry
     Harris-Foulkes estimate   =    -923.90865761 Ry
     estimated scf accuracy    <       0.00662600 Ry

     total magnetization       =     0.00 Bohr mag/cell
     absolute magnetization    =     2.70 Bohr mag/cell

     iteration #  7     ecut=    55.00 Ry     beta=0.70
     Davidson diagonalization with overlap
     ethr =  2.30E-06,  avg # of iterations =  3.5

     total cpu time spent up to now is       16.8 secs

     total energy              =    -923.92886456 Ry
     Harris-Foulkes estimate   =    -923.92883025 Ry
     estimated scf accuracy    <       0.00560116 Ry

     total magnetization       =     0.00 Bohr mag/cell
     absolute magnetization    =     1.04 Bohr mag/cell

     iteration #  8     ecut=    55.00 Ry     beta=0.70
     Davidson diagonalization with overlap
     ethr =  1.94E-06,  avg # of iterations =  2.5

     total cpu time spent up to now is       18.2 secs

     total energy              =    -923.92981988 Ry
     Harris-Foulkes estimate   =    -923.92973919 Ry
     estimated scf accuracy    <       0.00112186 Ry

     total magnetization       =    -0.00 Bohr mag/cell
     absolute magnetization    =     0.58 Bohr mag/cell

     iteration #  9     ecut=    55.00 Ry     beta=0.70
     Davidson diagonalization with overlap
     ethr =  3.90E-07,  avg # of iterations =  3.0

     total cpu time spent up to now is       19.7 secs

     total energy              =    -923.93034151 Ry
     Harris-Foulkes estimate   =    -923.93032590 Ry
     estimated scf accuracy    <       0.00009102 Ry

     total magnetization       =     0.00 Bohr mag/cell
     absolute magnetization    =     0.20 Bohr mag/cell

     iteration # 10     ecut=    55.00 Ry     beta=0.70
     Davidson diagonalization with overlap
     ethr =  3.16E-08,  avg # of iterations =  3.0

     total cpu time spent up to now is       21.2 secs

     total energy              =    -923.93042908 Ry
     Harris-Foulkes estimate   =    -923.93043652 Ry
     estimated scf accuracy    <       0.00002112 Ry

     total magnetization       =    -0.00 Bohr mag/cell
     absolute magnetization    =     0.02 Bohr mag/cell

     iteration # 11     ecut=    55.00 Ry     beta=0.70
     Davidson diagonalization with overlap
     ethr =  7.33E-09,  avg # of iterations =  3.0

     total cpu time spent up to now is       22.5 secs

     total energy              =    -923.93043435 Ry
     Harris-Foulkes estimate   =    -923.93043406 Ry
     estimated scf accuracy    <       0.00000099 Ry

     total magnetization       =     0.00 Bohr mag/cell
     absolute magnetization    =     0.01 Bohr mag/cell

     iteration # 12     ecut=    55.00 Ry     beta=0.70
     Davidson diagonalization with overlap
     ethr =  3.42E-10,  avg # of iterations =  3.5

     total cpu time spent up to now is       24.0 secs

     total energy              =    -923.93043491 Ry
     Harris-Foulkes estimate   =    -923.93043479 Ry
     estimated scf accuracy    <       0.00000021 Ry

     total magnetization       =    -0.00 Bohr mag/cell
     absolute magnetization    =     0.00 Bohr mag/cell

     iteration # 13     ecut=    55.00 Ry     beta=0.70
     Davidson diagonalization with overlap
     ethr =  7.29E-11,  avg # of iterations =  3.5

     total cpu time spent up to now is       25.3 secs

     total energy              =    -923.93043506 Ry
     Harris-Foulkes estimate   =    -923.93043499 Ry
     estimated scf accuracy    <       0.00000004 Ry

     total magnetization       =    -0.00 Bohr mag/cell
     absolute magnetization    =     0.00 Bohr mag/cell

     iteration # 14     ecut=    55.00 Ry     beta=0.70
     Davidson diagonalization with overlap
     ethr =  1.44E-11,  avg # of iterations =  4.0

     total cpu time spent up to now is       26.7 secs

     total energy              =    -923.93043511 Ry
     Harris-Foulkes estimate   =    -923.93043509 Ry
     estimated scf accuracy    <       0.00000002 Ry

     total magnetization       =    -0.00 Bohr mag/cell
     absolute magnetization    =     0.00 Bohr mag/cell

     iteration # 15     ecut=    55.00 Ry     beta=0.70
     Davidson diagonalization with overlap
     ethr =  6.32E-12,  avg # of iterations =  4.0
 
     Magnetic moment per site:
     atom:    1    charge:    0.8578    magn:   -0.0000    constr:    0.0000
     atom:    2    charge:    0.8559    magn:   -0.0000    constr:    0.0000
     atom:    3    charge:    0.8559    magn:   -0.0000    constr:    0.0000
     atom:    4    charge:    0.8578    magn:   -0.0000    constr:    0.0000
     atom:    5    charge:    0.8589    magn:   -0.0000    constr:    0.0000
     atom:    6    charge:    0.8589    magn:   -0.0000    constr:    0.0000
     atom:    7    charge:    0.8605    magn:   -0.0000    constr:    0.0000
     atom:    8    charge:    0.8583    magn:   -0.0000    constr:    0.0000
     atom:    9    charge:    0.8536    magn:   -0.0000    constr:    0.0000
     atom:   10    charge:    0.8583    magn:   -0.0000    constr:    0.0000
     atom:   11    charge:    0.8605    magn:   -0.0000    constr:    0.0000
     atom:   12    charge:    0.8584    magn:   -0.0000    constr:    0.0000
     atom:   13    charge:    0.8600    magn:   -0.0000    constr:    0.0000
     atom:   14    charge:    0.8641    magn:   -0.0000    constr:    0.0000
     atom:   15    charge:    0.8647    magn:   -0.0000    constr:    0.0000
     atom:   16    charge:    0.8647    magn:   -0.0000    constr:    0.0000
     atom:   17    charge:    0.8641    magn:   -0.0000    constr:    0.0000
     atom:   18    charge:    0.8600    magn:   -0.0000    constr:    0.0000
     atom:   19    charge:    0.8562    magn:   -0.0000    constr:    0.0000
     atom:   20    charge:    0.8523    magn:   -0.0000    constr:    0.0000
     atom:   21    charge:    0.8473    magn:    0.0000    constr:    0.0000
     atom:   22    charge:    0.8473    magn:    0.0000    constr:    0.0000
     atom:   23    charge:    0.8523    magn:   -0.0000    constr:    0.0000
     atom:   24    charge:    0.8569    magn:   -0.0000    constr:    0.0000
     atom:   25    charge:    0.8569    magn:   -0.0000    constr:    0.0000
     atom:   26    charge:    0.8576    magn:   -0.0000    constr:    0.0000
     atom:   27    charge:    0.8610    magn:   -0.0000    constr:    0.0000
     atom:   28    charge:    0.8610    magn:   -0.0000    constr:    0.0000
     atom:   29    charge:    0.8576    magn:   -0.0000    constr:    0.0000
     atom:   30    charge:    0.8583    magn:   -0.0000    constr:    0.0000
     atom:   31    charge:    0.8571    magn:   -0.0000    constr:    0.0000
     atom:   32    charge:    0.8583    magn:   -0.0000    constr:    0.0000
     atom:   33    charge:    0.8569    magn:   -0.0000    constr:    0.0000
     atom:   34    charge:    0.8626    magn:   -0.0000    constr:    0.0000
     atom:   35    charge:    0.8569    magn:   -0.0000    constr:    0.0000
     atom:   36    charge:    2.6799    magn:    0.0000    constr:    0.0000
     atom:   37    charge:    2.6748    magn:    0.0000    constr:    0.0000
     atom:   38    charge:    2.6767    magn:    0.0000    constr:    0.0000
     atom:   39    charge:    2.6748    magn:    0.0000    constr:    0.0000
     atom:   40    charge:    2.6799    magn:    0.0000    constr:    0.0000
     atom:   41    charge:    2.6738    magn:    0.0000    constr:    0.0000
     atom:   42    charge:    2.6799    magn:    0.0000    constr:    0.0000
     atom:   43    charge:    2.6792    magn:    0.0000    constr:    0.0000
     atom:   44    charge:    2.6759    magn:    0.0000    constr:    0.0000
     atom:   45    charge:    2.6759    magn:    0.0000    constr:    0.0000
     atom:   46    charge:    2.6792    magn:    0.0000    constr:    0.0000
     atom:   47    charge:    2.6799    magn:    0.0000    constr:    0.0000
     atom:   48    charge:    2.6817    magn:    0.0000    constr:    0.0000
     atom:   49    charge:    2.6782    magn:    0.0000    constr:    0.0000
     atom:   50    charge:    2.6802    magn:    0.0000    constr:    0.0000
     atom:   51    charge:    2.6802    magn:    0.0000    constr:    0.0000
     atom:   52    charge:    2.6782    magn:    0.0000    constr:    0.0000
     atom:   53    charge:    2.6774    magn:    0.0000    constr:    0.0000
     atom:   54    charge:    2.6774    magn:    0.0000    constr:    0.0000
     atom:   55    charge:    2.6738    magn:    0.0000    constr:    0.0000
     atom:   56    charge:    2.6635    magn:   -0.0000    constr:    0.0000
     atom:   57    charge:    2.6635    magn:   -0.0000    constr:    0.0000
     atom:   58    charge:    2.6738    magn:    0.0000    constr:    0.0000
     atom:   59    charge:    2.6786    magn:    0.0000    constr:    0.0000
     atom:   60    charge:    2.6726    magn:    0.0000    constr:    0.0000
     atom:   61    charge:    2.6786    magn:    0.0000    constr:    0.0000
     atom:   62    charge:    2.6747    magn:    0.0000    constr:    0.0000
     atom:   63    charge:    2.6836    magn:    0.0000    constr:    0.0000
     atom:   64    charge:    2.6747    magn:    0.0000    constr:    0.0000
     atom:   65    charge:    2.6792    magn:    0.0000    constr:    0.0000
     atom:   66    charge:    2.6789    magn:    0.0000    constr:    0.0000
     atom:   67    charge:    2.6789    magn:    0.0000    constr:    0.0000
     atom:   68    charge:    2.6792    magn:    0.0000    constr:    0.0000
     atom:   69    charge:    2.6808    magn:    0.0000    constr:    0.0000
     atom:   70    charge:    2.6808    magn:    0.0000    constr:    0.0000
     atom:   71    charge:    1.5570    magn:    0.0001    constr:    0.0000
     atom:   72    charge:    1.6287    magn:   -0.0000    constr:    0.0000

     total cpu time spent up to now is       28.2 secs

     End of self-consistent calculation

 ------ SPIN UP ------------


          k = 0.0000 0.0000 0.0000 (144701 PWs)   bands (ev):

   -22.0830 -21.1818 -20.8789 -20.8073 -20.7531 -20.7259 -20.6114 -20.1363
   -20.0319 -19.8106 -19.8091 -19.7557 -19.6637 -19.4980 -19.4938 -19.3603
   -19.3395 -19.3234 -19.0763 -18.8096 -18.5063 -18.4440 -18.3833 -18.3435
   -18.3416 -18.3115 -18.2992 -18.2686 -18.2658 -18.2576 -18.2243 -18.1380
   -18.1154 -17.7331 -17.6520 -15.2987 -13.2621 -12.5525 -12.5405 -12.2440
   -12.0990 -11.8062 -11.7990 -11.7585 -11.7476 -11.7019 -11.6936 -11.6851
   -11.6549 -11.5747 -11.5744 -11.5539 -11.5021 -11.0148 -10.7980 -10.6960
   -10.6214 -10.5692 -10.4921 -10.4204 -10.3934  -9.7135  -9.4506  -9.2534
    -9.2272  -9.1757  -9.1615  -9.1430  -9.1186  -9.0452  -9.0379  -9.0088
    -9.0078  -9.0020  -8.9858  -8.9624  -8.9194  -8.8885  -8.7817  -8.5952
    -8.5244  -8.2396  -8.2030  -8.1553  -8.1219  -8.0800  -7.9960  -7.8558
    -7.8555  -7.7397  -7.6908  -7.6401  -7.6365  -7.5153  -7.5037  -7.3945
    -7.3198  -7.3068  -7.2536  -7.2142  -7.1358  -7.1254  -7.0104  -7.0101
    -6.9830  -6.9346  -6.9171  -6.8446  -6.8399  -6.8075  -6.7936  -6.6933
    -6.4634  -6.3802  -6.2878  -6.2327  -6.2142  -6.1877  -6.0458  -5.9786
    -5.9490  -5.9012  -5.8801  -5.7832  -5.3748  -5.0202  -4.9722  -4.9680
    -4.8076  -4.7795  -4.7397  -4.7273  -4.7090  -4.6909  -4.6541  -4.6523
    -4.6442  -4.5786  -4.5532  -4.5217  -4.4608  -3.9304  -3.6634  -3.0230
     0.2949   1.0343   1.0673   1.1217   1.1711   1.1932   1.4630   1.7129
     1.7759   1.7797   1.8217   1.8341   1.8784   1.8881   1.9010   1.9130
     1.9150   1.9193   1.9376   1.9694   1.9859   1.9889   2.0408   2.0852

     occupation numbers 
     1.0000   1.0000   1.0000   1.0000   1.0000   1.0000   1.0000   1.0000
     1.0000   1.0000   1.0000   1.0000   1.0000   1.0000   1.0000   1.0000
     1.0000   1.0000   1.0000   1.0000   1.0000   1.0000   1.0000   1.0000
     1.0000   1.0000   1.0000   1.0000   1.0000   1.0000   1.0000   1.0000
     1.0000   1.0000   1.0000   1.0000   1.0000   1.0000   1.0000   1.0000
     1.0000   1.0000   1.0000   1.0000   1.0000   1.0000   1.0000   1.0000
     1.0000   1.0000   1.0000   1.0000   1.0000   1.0000   1.0000   1.0000
     1.0000   1.0000   1.0000   1.0000   1.0000   1.0000   1.0000   1.0000
     1.0000   1.0000   1.0000   1.0000   1.0000   1.0000   1.0000   1.0000
     1.0000   1.0000   1.0000   1.0000   1.0000   1.0000   1.0000   1.0000
     1.0000   1.0000   1.0000   1.0000   1.0000   1.0000   1.0000   1.0000
     1.0000   1.0000   1.0000   1.0000   1.0000   1.0000   1.0000   1.0000
     1.0000   1.0000   1.0000   1.0000   1.0000   1.0000   1.0000   1.0000
     1.0000   1.0000   1.0000   1.0000   1.0000   1.0000   1.0000   1.0000
     1.0000   1.0000   1.0000   1.0000   1.0000   1.0000   1.0000   1.0000
     1.0000   1.0000   1.0000   1.0000   1.0000   1.0000   1.0000   1.0000
     1.0000   1.0000   1.0000   1.0000   1.0000   1.0000   1.0000   1.0000
     1.0000   1.0000   1.0000   1.0000   1.0000   1.0000   1.0000   1.0000
     0.0000   0.0000   0.0000   0.0000   0.0000   0.0000   0.0000   0.0000
     0.0000   0.0000   0.0000   0.0000   0.0000   0.0000   0.0000   0.0000
     0.0000   0.0000   0.0000   0.0000   0.0000   0.0000   0.0000   0.0000

 ------ SPIN DOWN ----------


          k = 0.0000 0.0000 0.0000 (144701 PWs)   bands (ev):

   -22.0829 -21.1818 -20.8789 -20.8073 -20.7531 -20.7259 -20.6114 -20.1363
   -20.0320 -19.8106 -19.8091 -19.7557 -19.6637 -19.4980 -19.4938 -19.3603
   -19.3395 -19.3234 -19.0763 -18.8096 -18.5063 -18.4440 -18.3833 -18.3435
   -18.3416 -18.3114 -18.2991 -18.2686 -18.2658 -18.2576 -18.2243 -18.1380
   -18.1153 -17.7330 -17.6520 -15.2987 -13.2621 -12.5525 -12.5405 -12.2440
   -12.0990 -11.8062 -11.7990 -11.7585 -11.7476 -11.7019 -11.6936 -11.6851
   -11.6549 -11.5747 -11.5744 -11.5539 -11.5021 -11.0148 -10.7980 -10.6960
   -10.6214 -10.5692 -10.4921 -10.4204 -10.3934  -9.7135  -9.4505  -9.2534
    -9.2272  -9.1757  -9.1615  -9.1430  -9.1186  -9.0452  -9.0379  -9.0088
    -9.0078  -9.0020  -8.9858  -8.9623  -8.9194  -8.8885  -8.7818  -8.5952
    -8.5243  -8.2396  -8.2030  -8.1553  -8.1219  -8.0800  -7.9960  -7.8558
    -7.8555  -7.7397  -7.6908  -7.6400  -7.6365  -7.5153  -7.5037  -7.3945
    -7.3198  -7.3068  -7.2536  -7.2142  -7.1358  -7.1253  -7.0104  -7.0101
    -6.9830  -6.9346  -6.9171  -6.8446  -6.8399  -6.8075  -6.7936  -6.6933
    -6.4634  -6.3802  -6.2878  -6.2327  -6.2142  -6.1877  -6.0458  -5.9786
    -5.9490  -5.9012  -5.8801  -5.7832  -5.3748  -5.0202  -4.9722  -4.9680
    -4.8076  -4.7795  -4.7397  -4.7273  -4.7090  -4.6909  -4.6541  -4.6523
    -4.6442  -4.5786  -4.5532  -4.5217  -4.4608  -3.9304  -3.6633  -3.0232
     0.2953   1.0343   1.0673   1.1216   1.1711   1.1931   1.4630   1.7129
     1.7758   1.7797   1.8217   1.8341   1.8783   1.8881   1.9010   1.9130
     1.9150   1.9192   1.9375   1.9690   1.9859   1.9889   2.0407   2.0736

     occupation numbers 
     1.0000   1.0000   1.0000   1.0000   1.0000   1.0000   1.0000   1.0000
     1.0000   1.0000   1.0000   1.0000   1.0000   1.0000   1.0000   1.0000
     1.0000   1.0000   1.0000   1.0000   1.0000   1.0000   1.0000   1.0000
     1.0000   1.0000   1.0000   1.0000   1.0000   1.0000   1.0000   1.0000
     1.0000   1.0000   1.0000   1.0000   1.0000   1.0000   1.0000   1.0000
     1.0000   1.0000   1.0000   1.0000   1.0000   1.0000   1.0000   1.0000
     1.0000   1.0000   1.0000   1.0000   1.0000   1.0000   1.0000   1.0000
     1.0000   1.0000   1.0000   1.0000   1.0000   1.0000   1.0000   1.0000
     1.0000   1.0000   1.0000   1.0000   1.0000   1.0000   1.0000   1.0000
     1.0000   1.0000   1.0000   1.0000   1.0000   1.0000   1.0000   1.0000
     1.0000   1.0000   1.0000   1.0000   1.0000   1.0000   1.0000   1.0000
     1.0000   1.0000   1.0000   1.0000   1.0000   1.0000   1.0000   1.0000
     1.0000   1.0000   1.0000   1.0000   1.0000   1.0000   1.0000   1.0000
     1.0000   1.0000   1.0000   1.0000   1.0000   1.0000   1.0000   1.0000
     1.0000   1.0000   1.0000   1.0000   1.0000   1.0000   1.0000   1.0000
     1.0000   1.0000   1.0000   1.0000   1.0000   1.0000   1.0000   1.0000
     1.0000   1.0000   1.0000   1.0000   1.0000   1.0000   1.0000   1.0000
     1.0000   1.0000   1.0000   1.0000   1.0000   1.0000   1.0000   1.0000
     0.0000   0.0000   0.0000   0.0000   0.0000   0.0000   0.0000   0.0000
     0.0000   0.0000   0.0000   0.0000   0.0000   0.0000   0.0000   0.0000
     0.0000   0.0000   0.0000   0.0000   0.0000   0.0000   0.0000   0.0000

     highest occupied, lowest unoccupied level (ev):    -3.0230    0.2949

!    total energy              =    -923.93043512 Ry
     Harris-Foulkes estimate   =    -923.93043512 Ry
     estimated scf accuracy    <          7.6E-09 Ry

     The total energy is the sum of the following terms:

     one-electron contribution =   -6004.59522367 Ry
     hartree contribution      =    3060.45865559 Ry
     xc contribution           =    -264.86903453 Ry
     ewald contribution        =    2285.07516749 Ry

     total magnetization       =    -0.00 Bohr mag/cell
     absolute magnetization    =     0.00 Bohr mag/cell

     convergence has been achieved in  15 iterations

     Writing output data file BN.save
 
     init_run     :      2.30s CPU      2.74s WALL (       1 calls)
     electrons    :     25.23s CPU     25.62s WALL (       1 calls)

     Called by init_run:
     wfcinit      :      0.51s CPU      0.54s WALL (       1 calls)
     wfcinit:atom :      0.00s CPU      0.01s WALL (       1 calls)
     wfcinit:wfcr :      0.49s CPU      0.51s WALL (       1 calls)
     potinit      :      0.39s CPU      0.39s WALL (       1 calls)

     Called by electrons:
     c_bands      :     22.60s CPU     22.86s WALL (      15 calls)
     sum_band     :      1.44s CPU      1.47s WALL (      15 calls)
     v_of_rho     :      0.74s CPU      0.75s WALL (      16 calls)
     v_h          :      0.03s CPU      0.03s WALL (      16 calls)
     v_xc         :      0.71s CPU      0.72s WALL (      16 calls)
     mix_rho      :      0.22s CPU      0.23s WALL (      15 calls)

     Called by c_bands:
     init_us_2    :      0.22s CPU      0.23s WALL (      31 calls)
     cegterg      :     21.28s CPU     21.53s WALL (      15 calls)

     Called by sum_band:

     Called by *egterg:
     h_psi        :     10.67s CPU     10.77s WALL (      94 calls)
     g_psi        :      0.05s CPU      0.05s WALL (      78 calls)
     cdiaghg      :      6.82s CPU      6.86s WALL (      93 calls)
     cegterg:over :      1.67s CPU      1.68s WALL (      78 calls)
     cegterg:upda :      1.04s CPU      1.05s WALL (      78 calls)
     cegterg:last :      0.40s CPU      0.40s WALL (      16 calls)

     Called by h_psi:
     h_psi:pot    :     10.49s CPU     10.58s WALL (      94 calls)
     h_psi:calbec :      1.58s CPU      1.60s WALL (      94 calls)
     vloc_psi     :      7.42s CPU      7.50s WALL (      94 calls)
     add_vuspsi   :      1.48s CPU      1.49s WALL (      94 calls)

     General routines
     calbec       :      1.58s CPU      1.60s WALL (      94 calls)
     fft          :      0.56s CPU      0.58s WALL (     333 calls)
     fftw         :      7.96s CPU      8.05s WALL (   18038 calls)
 
     Parallel routines
     fft_scatter  :      4.98s CPU      5.05s WALL (   18371 calls)
 
     PWSCF        :    30.27s CPU        32.19s WALL

 
   This run was terminated on:  22:57:30  10Feb2021            

=------------------------------------------------------------------------------=
   JOB DONE.
=------------------------------------------------------------------------------=
