
     Program PWSCF v.6.1 (svn rev. 13369) starts on 26Mar2020 at 16: 9:53 

     This program is part of the open-source Quantum ESPRESSO suite
     for quantum simulation of materials; please cite
         "P. Giannozzi et al., J. Phys.:Condens. Matter 21 395502 (2009);
          URL http://www.quantum-espresso.org", 
     in publications or presentations arising from this work. More details at
     http://www.quantum-espresso.org/quote

     Parallel version (MPI), running on   216 processors
     K-points division:     npool     =       6
     R & G space division:  proc/nbgrp/npool/nimage =      36
     Reading input from relax.in

     Current dimensions of program PWSCF are:
     Max number of different atomic species (ntypx) = 10
     Max number of k-points (npk) =  40000
     Max angular momentum in pseudopotentials (lmaxx) =  3

     Subspace diagonalization in iterative solution of the eigenvalue problem:
     one sub-group per band group will be used
     scalapack distributed-memory algorithm (size of sub-group:  6*  6 procs)

     Found symmetry operation: I + (  0.0000  0.1429  0.0000)
     This is a supercell, fractional translations are disabled
 
     Parallelization info
     --------------------
     sticks:   dense  smooth     PW     G-vecs:    dense   smooth      PW
     Min         422     422    109                35974    35974    4737
     Max         423     423    110                35979    35979    4740
     Sum       15199   15199   3931              1295113  1295113  170579
 


     bravais-lattice index     =            4
     lattice parameter (alat)  =      33.2346  a.u.
     unit-cell volume          =   27114.5144 (a.u.)^3
     number of atoms/cell      =           98
     number of atomic types    =            2
     number of electrons       =       392.00 (up: 196.00, down: 196.00)
     number of Kohn-Sham states=          220
     kinetic-energy cutoff     =      50.0000  Ry
     charge density cutoff     =     200.0000  Ry
     convergence threshold     =      1.0E-08
     mixing beta               =       0.7000
     number of iterations used =            8  plain     mixing
     Exchange-correlation      = PBE ( 1  4  3  4 0 0)
     nstep                     =           50


     celldm(1)=  33.234606  celldm(2)=   0.000000  celldm(3)=   0.852903
     celldm(4)=   0.000000  celldm(5)=   0.000000  celldm(6)=   0.000000

     crystal axes: (cart. coord. in units of alat)
               a(1) = (   1.000000   0.000000   0.000000 )  
               a(2) = (  -0.500000   0.866025   0.000000 )  
               a(3) = (   0.000000   0.000000   0.852903 )  

     reciprocal axes: (cart. coord. in units 2 pi/alat)
               b(1) = (  1.000000  0.577350  0.000000 )  
               b(2) = (  0.000000  1.154701  0.000000 )  
               b(3) = (  0.000000  0.000000  1.172466 )  


     PseudoPot. # 1 for B  read from file:
     /g/g13/smart8/Pseudo/B_ONCV_PBE-1.0.upf
     MD5 check sum: a9fd2462c33df863cd3ce8a66ea40380
     Pseudo is Norm-conserving, Zval =  3.0
     Generated using ONCVPSP code by D. R. Hamann
     Using radial grid of 1534 points,  4 beta functions with: 
                l(1) =   0
                l(2) =   0
                l(3) =   1
                l(4) =   1

     PseudoPot. # 2 for N  read from file:
     /g/g13/smart8/Pseudo/N_ONCV_PBE-1.0.upf
     MD5 check sum: 09890da6b2972017450f7114a6086fad
     Pseudo is Norm-conserving, Zval =  5.0
     Generated using ONCVPSP code by D. R. Hamann
     Using radial grid of 1058 points,  4 beta functions with: 
                l(1) =   0
                l(2) =   0
                l(3) =   1
                l(4) =   1

     atomic species   valence    mass     pseudopotential
        B              3.00    10.81100     B ( 1.00)
        N              5.00    14.00674     N ( 1.00)

     Starting magnetic structure 
     atomic species   magnetization
        B            0.000
        N            0.000

     12 Sym. Ops. (no inversion) found


                                    s                        frac. trans.

      isym =  1     identity                                     

 cryst.   s( 1) = (     1          0          0      )
                  (     0          1          0      )
                  (     0          0          1      )

 cart.    s( 1) = (  1.0000000  0.0000000  0.0000000 )
                  (  0.0000000  1.0000000  0.0000000 )
                  (  0.0000000  0.0000000  1.0000000 )


      isym =  2     180 deg rotation - cart. axis [0,1,0]        

 cryst.   s( 2) = (    -1          0          0      )
                  (     1          1          0      )
                  (     0          0         -1      )

 cart.    s( 2) = ( -1.0000000  0.0000000  0.0000000 )
                  (  0.0000000  1.0000000  0.0000000 )
                  (  0.0000000  0.0000000 -1.0000000 )


      isym =  3     120 deg rotation - cryst. axis [0,0,1]       

 cryst.   s( 3) = (     0          1          0      )
                  (    -1         -1          0      )
                  (     0          0          1      )

 cart.    s( 3) = ( -0.5000000 -0.8660254  0.0000000 )
                  (  0.8660254 -0.5000000  0.0000000 )
                  (  0.0000000  0.0000000  1.0000000 )


      isym =  4     120 deg rotation - cryst. axis [0,0,-1]      

 cryst.   s( 4) = (    -1         -1          0      )
                  (     1          0          0      )
                  (     0          0          1      )

 cart.    s( 4) = ( -0.5000000  0.8660254  0.0000000 )
                  ( -0.8660254 -0.5000000  0.0000000 )
                  (  0.0000000  0.0000000  1.0000000 )


      isym =  5     180 deg rotation - cryst. axis [1,-1,0]      

 cryst.   s( 5) = (     0         -1          0      )
                  (    -1          0          0      )
                  (     0          0         -1      )

 cart.    s( 5) = (  0.5000000 -0.8660254  0.0000000 )
                  ( -0.8660254 -0.5000000  0.0000000 )
                  (  0.0000000  0.0000000 -1.0000000 )


      isym =  6     180 deg rotation - cryst. axis [2,1,0]       

 cryst.   s( 6) = (     1          1          0      )
                  (     0         -1          0      )
                  (     0          0         -1      )

 cart.    s( 6) = (  0.5000000  0.8660254  0.0000000 )
                  (  0.8660254 -0.5000000  0.0000000 )
                  (  0.0000000  0.0000000 -1.0000000 )


      isym =  7     inv. 180 deg rotation - cart. axis [0,0,1]   

 cryst.   s( 7) = (     1          0          0      )
                  (     0          1          0      )
                  (     0          0         -1      )

 cart.    s( 7) = (  1.0000000  0.0000000  0.0000000 )
                  (  0.0000000  1.0000000  0.0000000 )
                  (  0.0000000  0.0000000 -1.0000000 )


      isym =  8     inv. 180 deg rotation - cart. axis [1,0,0]   

 cryst.   s( 8) = (    -1          0          0      )
                  (     1          1          0      )
                  (     0          0          1      )

 cart.    s( 8) = ( -1.0000000  0.0000000  0.0000000 )
                  (  0.0000000  1.0000000  0.0000000 )
                  (  0.0000000  0.0000000  1.0000000 )


      isym =  9     inv.  60 deg rotation - cryst. axis [0,0,1]  

 cryst.   s( 9) = (    -1         -1          0      )
                  (     1          0          0      )
                  (     0          0         -1      )

 cart.    s( 9) = ( -0.5000000  0.8660254  0.0000000 )
                  ( -0.8660254 -0.5000000  0.0000000 )
                  (  0.0000000  0.0000000 -1.0000000 )


      isym = 10     inv.  60 deg rotation - cryst. axis [0,0,-1] 

 cryst.   s(10) = (     0          1          0      )
                  (    -1         -1          0      )
                  (     0          0         -1      )

 cart.    s(10) = ( -0.5000000 -0.8660254  0.0000000 )
                  (  0.8660254 -0.5000000  0.0000000 )
                  (  0.0000000  0.0000000 -1.0000000 )


      isym = 11     inv. 180 deg rotation - cryst. axis [0,1,0]  

 cryst.   s(11) = (     1          1          0      )
                  (     0         -1          0      )
                  (     0          0          1      )

 cart.    s(11) = (  0.5000000  0.8660254  0.0000000 )
                  (  0.8660254 -0.5000000  0.0000000 )
                  (  0.0000000  0.0000000  1.0000000 )


      isym = 12     inv. 180 deg rotation - cryst. axis [1,1,0]  

 cryst.   s(12) = (     0         -1          0      )
                  (    -1          0          0      )
                  (     0          0          1      )

 cart.    s(12) = (  0.5000000 -0.8660254  0.0000000 )
                  ( -0.8660254 -0.5000000  0.0000000 )
                  (  0.0000000  0.0000000  1.0000000 )


     point group D_3h (-62m)
     there are  6 classes
     the character table:

       E     2C3   3C2   s_h   2S3   3s_v 
A'_1   1.00  1.00  1.00  1.00  1.00  1.00
A'_2   1.00  1.00 -1.00  1.00  1.00 -1.00
E'     2.00 -1.00  0.00  2.00 -1.00  0.00
A''1   1.00  1.00  1.00 -1.00 -1.00 -1.00
A''2   1.00  1.00 -1.00 -1.00 -1.00  1.00
E''    2.00 -1.00  0.00 -2.00  1.00  0.00

     the symmetry operations in each class and the name of the first element:

     E        1
          identity                                               
     2C3      3    4
          120 deg rotation - cryst. axis [0,0,1]                 
     3C2      2    6    5
          180 deg rotation - cart. axis [0,1,0]                  
     s_h      7
          inv. 180 deg rotation - cart. axis [0,0,1]             
     2S3      9   10
          inv.  60 deg rotation - cryst. axis [0,0,1]            
     3s_v     8   11   12
          inv. 180 deg rotation - cart. axis [1,0,0]             

   Cartesian axes

     site n.     atom                  positions (alat units)
         1           B   tau(   1) = (  -0.0000001   0.0824786   0.4264515  )
         2           B   tau(   2) = (  -0.0714286   0.2061966   0.4264515  )
         3           B   tau(   3) = (  -0.1428572   0.3299145   0.4264515  )
         4           B   tau(   4) = (  -0.2142858   0.4536324   0.4264515  )
         5           B   tau(   5) = (  -0.2857144   0.5773504   0.4264515  )
         6           B   tau(   6) = (  -0.3571430   0.7010682   0.4264515  )
         7           B   tau(   7) = (  -0.4285715   0.8247861   0.4264515  )
         8           B   tau(   8) = (   0.1428571   0.0824786   0.4264515  )
         9           B   tau(   9) = (   0.0714285   0.2061966   0.4264515  )
        10           B   tau(  10) = (  -0.0000001   0.3299145   0.4264515  )
        11           B   tau(  11) = (  -0.0714286   0.4536324   0.4264515  )
        12           B   tau(  12) = (  -0.1428572   0.5773504   0.4264515  )
        13           B   tau(  13) = (  -0.2142858   0.7010682   0.4264515  )
        14           B   tau(  14) = (  -0.2857144   0.8247861   0.4264515  )
        15           B   tau(  15) = (   0.2857142   0.0824786   0.4264515  )
        16           B   tau(  16) = (   0.2142856   0.2061966   0.4264515  )
        17           B   tau(  17) = (   0.1428570   0.3299145   0.4264515  )
        18           B   tau(  18) = (   0.0714285   0.4536324   0.4264515  )
        19           B   tau(  19) = (  -0.0000001   0.5773504   0.4264515  )
        20           B   tau(  20) = (  -0.0714287   0.7010682   0.4264515  )
        21           B   tau(  21) = (  -0.1428572   0.8247861   0.4264515  )
        22           B   tau(  22) = (   0.4285713   0.0824786   0.4264515  )
        23           B   tau(  23) = (   0.3571428   0.2061966   0.4264515  )
        24           B   tau(  24) = (   0.2857142   0.3299145   0.4264515  )
        25           B   tau(  25) = (   0.2142856   0.4536324   0.4264515  )
        26           B   tau(  26) = (   0.1428570   0.5773504   0.4264515  )
        27           B   tau(  27) = (   0.0714284   0.7010682   0.4264515  )
        28           B   tau(  28) = (  -0.0000001   0.8247861   0.4264515  )
        29           B   tau(  29) = (   0.5714285   0.0824786   0.4264515  )
        30           B   tau(  30) = (   0.4999999   0.2061966   0.4264515  )
        31           B   tau(  31) = (   0.4285714   0.3299145   0.4264515  )
        32           B   tau(  32) = (   0.3571428   0.4536324   0.4264515  )
        33           B   tau(  33) = (   0.2857142   0.5773504   0.4264515  )
        34           B   tau(  34) = (   0.2142856   0.7010682   0.4264515  )
        35           B   tau(  35) = (   0.1428571   0.8247861   0.4264515  )
        36           B   tau(  36) = (   0.7142856   0.0824786   0.4264515  )
        37           B   tau(  37) = (   0.6428571   0.2061966   0.4264515  )
        38           B   tau(  38) = (   0.5714285   0.3299145   0.4264515  )
        39           B   tau(  39) = (   0.4999999   0.4536324   0.4264515  )
        40           B   tau(  40) = (   0.4285713   0.5773504   0.4264515  )
        41           B   tau(  41) = (   0.3571427   0.7010682   0.4264515  )
        42           B   tau(  42) = (   0.2857142   0.8247861   0.4264515  )
        43           B   tau(  43) = (   0.8571428   0.0824786   0.4264515  )
        44           B   tau(  44) = (   0.7857142   0.2061966   0.4264515  )
        45           B   tau(  45) = (   0.7142856   0.3299145   0.4264515  )
        46           B   tau(  46) = (   0.6428571   0.4536324   0.4264515  )
        47           B   tau(  47) = (   0.5714285   0.5773504   0.4264515  )
        48           B   tau(  48) = (   0.4999999   0.7010682   0.4264515  )
        49           B   tau(  49) = (   0.4285714   0.8247861   0.4264515  )
        50           N   tau(  50) = (   0.0714286   0.0412393   0.4264515  )
        51           N   tau(  51) = (   0.0000001   0.1649572   0.4264515  )
        52           N   tau(  52) = (  -0.0714285   0.2886751   0.4264515  )
        53           N   tau(  53) = (  -0.1428571   0.4123930   0.4264515  )
        54           N   tau(  54) = (  -0.2142857   0.5361109   0.4264515  )
        55           N   tau(  55) = (  -0.2857142   0.6598289   0.4264515  )
        56           N   tau(  56) = (  -0.3571428   0.7835467   0.4264515  )
        57           N   tau(  57) = (   0.2142858   0.0412393   0.4264515  )
        58           N   tau(  58) = (   0.1428572   0.1649572   0.4264515  )
        59           N   tau(  59) = (   0.0714286   0.2886751   0.4264515  )
        60           N   tau(  60) = (   0.0000001   0.4123930   0.4264515  )
        61           N   tau(  61) = (  -0.0714285   0.5361109   0.4264515  )
        62           N   tau(  62) = (  -0.1428571   0.6598289   0.4264515  )
        63           N   tau(  63) = (  -0.2142857   0.7835467   0.4264515  )
        64           N   tau(  64) = (   0.3571430   0.0412393   0.4264515  )
        65           N   tau(  65) = (   0.2857144   0.1649572   0.4264515  )
        66           N   tau(  66) = (   0.2142858   0.2886751   0.4264515  )
        67           N   tau(  67) = (   0.1428573   0.4123930   0.4264515  )
        68           N   tau(  68) = (   0.0714287   0.5361109   0.4264515  )
        69           N   tau(  69) = (   0.0000001   0.6598289   0.4264515  )
        70           N   tau(  70) = (  -0.0714285   0.7835467   0.4264515  )
        71           N   tau(  71) = (   0.5000001   0.0412393   0.4264515  )
        72           N   tau(  72) = (   0.4285715   0.1649572   0.4264515  )
        73           N   tau(  73) = (   0.3571429   0.2886751   0.4264515  )
        74           N   tau(  74) = (   0.2857143   0.4123930   0.4264515  )
        75           N   tau(  75) = (   0.2142858   0.5361109   0.4264515  )
        76           N   tau(  76) = (   0.1428572   0.6598289   0.4264515  )
        77           N   tau(  77) = (   0.0714286   0.7835467   0.4264515  )
        78           N   tau(  78) = (   0.6428572   0.0412393   0.4264515  )
        79           N   tau(  79) = (   0.5714286   0.1649572   0.4264515  )
        80           N   tau(  80) = (   0.5000001   0.2886751   0.4264515  )
        81           N   tau(  81) = (   0.4285715   0.4123930   0.4264515  )
        82           N   tau(  82) = (   0.3571429   0.5361109   0.4264515  )
        83           N   tau(  83) = (   0.2857144   0.6598289   0.4264515  )
        84           N   tau(  84) = (   0.2142858   0.7835467   0.4264515  )
        85           N   tau(  85) = (   0.7857144   0.0412393   0.4264515  )
        86           N   tau(  86) = (   0.7142858   0.1649572   0.4264515  )
        87           N   tau(  87) = (   0.6428573   0.2886751   0.4264515  )
        88           N   tau(  88) = (   0.5714287   0.4123930   0.4264515  )
        89           N   tau(  89) = (   0.5000001   0.5361109   0.4264515  )
        90           N   tau(  90) = (   0.4285715   0.6598289   0.4264515  )
        91           N   tau(  91) = (   0.3571430   0.7835467   0.4264515  )
        92           N   tau(  92) = (   0.9285715   0.0412393   0.4264515  )
        93           N   tau(  93) = (   0.8571429   0.1649572   0.4264515  )
        94           N   tau(  94) = (   0.7857143   0.2886751   0.4264515  )
        95           N   tau(  95) = (   0.7142858   0.4123930   0.4264515  )
        96           N   tau(  96) = (   0.6428572   0.5361109   0.4264515  )
        97           N   tau(  97) = (   0.5714287   0.6598289   0.4264515  )
        98           N   tau(  98) = (   0.5000001   0.7835467   0.4264515  )

   Crystallographic axes

     site n.     atom                  positions (cryst. coord.)
         1           B   tau(   1) = (  0.0476190  0.0952381  0.5000000  )
         2           B   tau(   2) = (  0.0476190  0.2380953  0.5000000  )
         3           B   tau(   3) = (  0.0476190  0.3809524  0.5000000  )
         4           B   tau(   4) = (  0.0476190  0.5238096  0.5000000  )
         5           B   tau(   5) = (  0.0476190  0.6666668  0.5000000  )
         6           B   tau(   6) = (  0.0476190  0.8095239  0.5000000  )
         7           B   tau(   7) = (  0.0476190  0.9523810  0.5000000  )
         8           B   tau(   8) = (  0.1904761  0.0952381  0.5000000  )
         9           B   tau(   9) = (  0.1904761  0.2380953  0.5000000  )
        10           B   tau(  10) = (  0.1904761  0.3809524  0.5000000  )
        11           B   tau(  11) = (  0.1904761  0.5238096  0.5000000  )
        12           B   tau(  12) = (  0.1904762  0.6666668  0.5000000  )
        13           B   tau(  13) = (  0.1904761  0.8095239  0.5000000  )
        14           B   tau(  14) = (  0.1904761  0.9523810  0.5000000  )
        15           B   tau(  15) = (  0.3333333  0.0952381  0.5000000  )
        16           B   tau(  16) = (  0.3333333  0.2380953  0.5000000  )
        17           B   tau(  17) = (  0.3333333  0.3809524  0.5000000  )
        18           B   tau(  18) = (  0.3333333  0.5238096  0.5000000  )
        19           B   tau(  19) = (  0.3333333  0.6666668  0.5000000  )
        20           B   tau(  20) = (  0.3333333  0.8095239  0.5000000  )
        21           B   tau(  21) = (  0.3333333  0.9523810  0.5000000  )
        22           B   tau(  22) = (  0.4761904  0.0952381  0.5000000  )
        23           B   tau(  23) = (  0.4761904  0.2380953  0.5000000  )
        24           B   tau(  24) = (  0.4761904  0.3809524  0.5000000  )
        25           B   tau(  25) = (  0.4761904  0.5238096  0.5000000  )
        26           B   tau(  26) = (  0.4761904  0.6666668  0.5000000  )
        27           B   tau(  27) = (  0.4761904  0.8095239  0.5000000  )
        28           B   tau(  28) = (  0.4761904  0.9523810  0.5000000  )
        29           B   tau(  29) = (  0.6190475  0.0952381  0.5000000  )
        30           B   tau(  30) = (  0.6190476  0.2380953  0.5000000  )
        31           B   tau(  31) = (  0.6190476  0.3809524  0.5000000  )
        32           B   tau(  32) = (  0.6190476  0.5238096  0.5000000  )
        33           B   tau(  33) = (  0.6190476  0.6666668  0.5000000  )
        34           B   tau(  34) = (  0.6190475  0.8095239  0.5000000  )
        35           B   tau(  35) = (  0.6190476  0.9523810  0.5000000  )
        36           B   tau(  36) = (  0.7619047  0.0952381  0.5000000  )
        37           B   tau(  37) = (  0.7619047  0.2380953  0.5000000  )
        38           B   tau(  38) = (  0.7619047  0.3809524  0.5000000  )
        39           B   tau(  39) = (  0.7619047  0.5238096  0.5000000  )
        40           B   tau(  40) = (  0.7619047  0.6666668  0.5000000  )
        41           B   tau(  41) = (  0.7619047  0.8095239  0.5000000  )
        42           B   tau(  42) = (  0.7619047  0.9523810  0.5000000  )
        43           B   tau(  43) = (  0.9047618  0.0952381  0.5000000  )
        44           B   tau(  44) = (  0.9047619  0.2380953  0.5000000  )
        45           B   tau(  45) = (  0.9047619  0.3809524  0.5000000  )
        46           B   tau(  46) = (  0.9047618  0.5238096  0.5000000  )
        47           B   tau(  47) = (  0.9047619  0.6666668  0.5000000  )
        48           B   tau(  48) = (  0.9047618  0.8095239  0.5000000  )
        49           B   tau(  49) = (  0.9047619  0.9523810  0.5000000  )
        50           N   tau(  50) = (  0.0952381  0.0476190  0.5000000  )
        51           N   tau(  51) = (  0.0952381  0.1904762  0.5000000  )
        52           N   tau(  52) = (  0.0952381  0.3333333  0.5000000  )
        53           N   tau(  53) = (  0.0952381  0.4761904  0.5000000  )
        54           N   tau(  54) = (  0.0952381  0.6190476  0.5000000  )
        55           N   tau(  55) = (  0.0952382  0.7619047  0.5000000  )
        56           N   tau(  56) = (  0.0952381  0.9047618  0.5000000  )
        57           N   tau(  57) = (  0.2380953  0.0476190  0.5000000  )
        58           N   tau(  58) = (  0.2380953  0.1904762  0.5000000  )
        59           N   tau(  59) = (  0.2380953  0.3333333  0.5000000  )
        60           N   tau(  60) = (  0.2380953  0.4761904  0.5000000  )
        61           N   tau(  61) = (  0.2380953  0.6190476  0.5000000  )
        62           N   tau(  62) = (  0.2380953  0.7619047  0.5000000  )
        63           N   tau(  63) = (  0.2380953  0.9047618  0.5000000  )
        64           N   tau(  64) = (  0.3809525  0.0476190  0.5000000  )
        65           N   tau(  65) = (  0.3809525  0.1904762  0.5000000  )
        66           N   tau(  66) = (  0.3809525  0.3333333  0.5000000  )
        67           N   tau(  67) = (  0.3809525  0.4761904  0.5000000  )
        68           N   tau(  68) = (  0.3809525  0.6190476  0.5000000  )
        69           N   tau(  69) = (  0.3809525  0.7619047  0.5000000  )
        70           N   tau(  70) = (  0.3809524  0.9047618  0.5000000  )
        71           N   tau(  71) = (  0.5238096  0.0476190  0.5000000  )
        72           N   tau(  72) = (  0.5238095  0.1904762  0.5000000  )
        73           N   tau(  73) = (  0.5238095  0.3333333  0.5000000  )
        74           N   tau(  74) = (  0.5238095  0.4761904  0.5000000  )
        75           N   tau(  75) = (  0.5238096  0.6190476  0.5000000  )
        76           N   tau(  76) = (  0.5238096  0.7619047  0.5000000  )
        77           N   tau(  77) = (  0.5238095  0.9047618  0.5000000  )
        78           N   tau(  78) = (  0.6666667  0.0476190  0.5000000  )
        79           N   tau(  79) = (  0.6666667  0.1904762  0.5000000  )
        80           N   tau(  80) = (  0.6666668  0.3333333  0.5000000  )
        81           N   tau(  81) = (  0.6666667  0.4761904  0.5000000  )
        82           N   tau(  82) = (  0.6666667  0.6190476  0.5000000  )
        83           N   tau(  83) = (  0.6666667  0.7619047  0.5000000  )
        84           N   tau(  84) = (  0.6666667  0.9047618  0.5000000  )
        85           N   tau(  85) = (  0.8095239  0.0476190  0.5000000  )
        86           N   tau(  86) = (  0.8095239  0.1904762  0.5000000  )
        87           N   tau(  87) = (  0.8095239  0.3333333  0.5000000  )
        88           N   tau(  88) = (  0.8095239  0.4761904  0.5000000  )
        89           N   tau(  89) = (  0.8095239  0.6190476  0.5000000  )
        90           N   tau(  90) = (  0.8095239  0.7619047  0.5000000  )
        91           N   tau(  91) = (  0.8095239  0.9047618  0.5000000  )
        92           N   tau(  92) = (  0.9523810  0.0476190  0.5000000  )
        93           N   tau(  93) = (  0.9523810  0.1904762  0.5000000  )
        94           N   tau(  94) = (  0.9523810  0.3333333  0.5000000  )
        95           N   tau(  95) = (  0.9523810  0.4761904  0.5000000  )
        96           N   tau(  96) = (  0.9523810  0.6190476  0.5000000  )
        97           N   tau(  97) = (  0.9523811  0.7619047  0.5000000  )
        98           N   tau(  98) = (  0.9523810  0.9047618  0.5000000  )

     number of k points=     3
                       cart. coord. in units 2pi/alat
        k(    1) = (   0.0000000   0.0000000   0.0000000), wk =   0.1111111
        k(    2) = (   0.0000000   0.3849002   0.0000000), wk =   0.6666667
        k(    3) = (   0.3333333   0.5773503   0.0000000), wk =   0.2222222

                       cryst. coord.
        k(    1) = (   0.0000000   0.0000000   0.0000000), wk =   0.1111111
        k(    2) = (   0.0000000   0.3333333   0.0000000), wk =   0.6666667
        k(    3) = (   0.3333333   0.3333333   0.0000000), wk =   0.2222222

     Dense  grid:  1295113 G-vectors     FFT dimensions: ( 150, 150, 128)

     Estimated max dynamical RAM per process >     168.08MB

     Estimated total allocated dynamical RAM >   36305.78MB
     Generating pointlists ...
     new r_m :   0.0340 (alat units)  1.1307 (a.u.) for type    1
     new r_m :   0.0340 (alat units)  1.1307 (a.u.) for type    2

     Initial potential from superposition of free atoms
     Check: negative starting charge=(component1):   -0.003766
     Check: negative starting charge=(component2):   -0.003766

     starting charge  391.98743, renormalised to  392.00000

     negative rho (up, down):  3.766E-03 3.766E-03
     Starting wfc are  392 randomized atomic wfcs

     total cpu time spent up to now is        7.4 secs

     per-process dynamical memory:   132.8 Mb

     Self-consistent Calculation

     iteration #  1     ecut=    50.00 Ry     beta=0.70
     Davidson diagonalization with overlap
     ethr =  1.00E-02,  avg # of iterations =  2.0

     negative rho (up, down):  6.895E-04 6.895E-04

     total cpu time spent up to now is       15.3 secs

     total energy              =   -1254.57317439 Ry
     Harris-Foulkes estimate   =   -1267.19722292 Ry
     estimated scf accuracy    <      19.08114606 Ry

     total magnetization       =    -0.00 Bohr mag/cell
     absolute magnetization    =     0.00 Bohr mag/cell

     iteration #  2     ecut=    50.00 Ry     beta=0.70
     Davidson diagonalization with overlap
     ethr =  4.87E-03,  avg # of iterations =  3.0

     negative rho (up, down):  3.232E-04 3.232E-04

     total cpu time spent up to now is       23.5 secs

     total energy              =   -1259.15202078 Ry
     Harris-Foulkes estimate   =   -1264.11849982 Ry
     estimated scf accuracy    <       9.76181029 Ry

     total magnetization       =     0.00 Bohr mag/cell
     absolute magnetization    =     0.00 Bohr mag/cell

     iteration #  3     ecut=    50.00 Ry     beta=0.70
     Davidson diagonalization with overlap
     ethr =  2.49E-03,  avg # of iterations =  2.0

     total cpu time spent up to now is       31.4 secs

     total energy              =   -1261.10141154 Ry
     Harris-Foulkes estimate   =   -1261.12696377 Ry
     estimated scf accuracy    <       0.10731910 Ry

     total magnetization       =     0.00 Bohr mag/cell
     absolute magnetization    =     0.00 Bohr mag/cell

     iteration #  4     ecut=    50.00 Ry     beta=0.70
     Davidson diagonalization with overlap
     ethr =  2.74E-05,  avg # of iterations =  4.0

     negative rho (up, down):  1.867E-06 1.867E-06

     total cpu time spent up to now is       40.7 secs

     total energy              =   -1261.16488205 Ry
     Harris-Foulkes estimate   =   -1261.18456161 Ry
     estimated scf accuracy    <       0.03638329 Ry

     total magnetization       =    -0.00 Bohr mag/cell
     absolute magnetization    =     0.00 Bohr mag/cell

     iteration #  5     ecut=    50.00 Ry     beta=0.70
     Davidson diagonalization with overlap
     c_bands:  1 eigenvalues not converged
     ethr =  9.28E-06,  avg # of iterations = 14.0

     total cpu time spent up to now is       51.6 secs

     total energy              =   -1261.17015645 Ry
     Harris-Foulkes estimate   =   -1261.17014805 Ry
     estimated scf accuracy    <       0.00123287 Ry

     total magnetization       =    -0.00 Bohr mag/cell
     absolute magnetization    =     0.00 Bohr mag/cell

     iteration #  6     ecut=    50.00 Ry     beta=0.70
     Davidson diagonalization with overlap
     c_bands:  4 eigenvalues not converged
     ethr =  3.15E-07,  avg # of iterations = 14.3

     total cpu time spent up to now is       64.3 secs

     total energy              =   -1261.17062221 Ry
     Harris-Foulkes estimate   =   -1261.17073471 Ry
     estimated scf accuracy    <       0.00028140 Ry

     total magnetization       =    -0.00 Bohr mag/cell
     absolute magnetization    =     0.00 Bohr mag/cell

     iteration #  7     ecut=    50.00 Ry     beta=0.70
     Davidson diagonalization with overlap
     ethr =  7.18E-08,  avg # of iterations = 10.0

     total cpu time spent up to now is       75.1 secs

     total energy              =   -1261.17063484 Ry
     Harris-Foulkes estimate   =   -1261.17065639 Ry
     estimated scf accuracy    <       0.00005368 Ry

     total magnetization       =     0.00 Bohr mag/cell
     absolute magnetization    =     0.00 Bohr mag/cell

     iteration #  8     ecut=    50.00 Ry     beta=0.70
     Davidson diagonalization with overlap
     ethr =  1.37E-08,  avg # of iterations =  6.7

     total cpu time spent up to now is       84.5 secs

     total energy              =   -1261.17064346 Ry
     Harris-Foulkes estimate   =   -1261.17064485 Ry
     estimated scf accuracy    <       0.00000254 Ry

     total magnetization       =     0.00 Bohr mag/cell
     absolute magnetization    =     0.00 Bohr mag/cell

     iteration #  9     ecut=    50.00 Ry     beta=0.70
     Davidson diagonalization with overlap
     ethr =  6.48E-10,  avg # of iterations =  3.0

     total cpu time spent up to now is       93.4 secs

     total energy              =   -1261.17064443 Ry
     Harris-Foulkes estimate   =   -1261.17064502 Ry
     estimated scf accuracy    <       0.00000221 Ry

     total magnetization       =     0.00 Bohr mag/cell
     absolute magnetization    =     0.00 Bohr mag/cell

     iteration # 10     ecut=    50.00 Ry     beta=0.70
     Davidson diagonalization with overlap
     ethr =  5.64E-10,  avg # of iterations =  1.0

     total cpu time spent up to now is       99.4 secs

     total energy              =   -1261.17064420 Ry
     Harris-Foulkes estimate   =   -1261.17064451 Ry
     estimated scf accuracy    <       0.00000076 Ry

     total magnetization       =    -0.00 Bohr mag/cell
     absolute magnetization    =     0.00 Bohr mag/cell

     iteration # 11     ecut=    50.00 Ry     beta=0.70
     Davidson diagonalization with overlap
     ethr =  1.95E-10,  avg # of iterations =  3.0
 
     Magnetic moment per site:
     atom:    1    charge:    0.8844    magn:    0.0000    constr:    0.0000
     atom:    2    charge:    0.8865    magn:    0.0000    constr:    0.0000
     atom:    3    charge:    0.8830    magn:    0.0000    constr:    0.0000
     atom:    4    charge:    0.8871    magn:   -0.0000    constr:    0.0000
     atom:    5    charge:    0.8830    magn:    0.0000    constr:    0.0000
     atom:    6    charge:    0.8865    magn:    0.0000    constr:    0.0000
     atom:    7    charge:    0.8844    magn:    0.0000    constr:    0.0000
     atom:    8    charge:    0.8881    magn:   -0.0000    constr:    0.0000
     atom:    9    charge:    0.8865    magn:    0.0000    constr:    0.0000
     atom:   10    charge:    0.8871    magn:    0.0000    constr:    0.0000
     atom:   11    charge:    0.8862    magn:   -0.0000    constr:    0.0000
     atom:   12    charge:    0.8862    magn:   -0.0000    constr:    0.0000
     atom:   13    charge:    0.8871    magn:    0.0000    constr:    0.0000
     atom:   14    charge:    0.8865    magn:    0.0000    constr:    0.0000
     atom:   15    charge:    0.8851    magn:    0.0000    constr:    0.0000
     atom:   16    charge:    0.8851    magn:    0.0000    constr:    0.0000
     atom:   17    charge:    0.8830    magn:    0.0000    constr:    0.0000
     atom:   18    charge:    0.8862    magn:    0.0000    constr:    0.0000
     atom:   19    charge:    0.8816    magn:    0.0000    constr:    0.0000
     atom:   20    charge:    0.8862    magn:   -0.0000    constr:    0.0000
     atom:   21    charge:    0.8830    magn:    0.0000    constr:    0.0000
     atom:   22    charge:    0.8868    magn:    0.0000    constr:    0.0000
     atom:   23    charge:    0.8883    magn:   -0.0000    constr:    0.0000
     atom:   24    charge:    0.8868    magn:    0.0000    constr:    0.0000
     atom:   25    charge:    0.8871    magn:    0.0000    constr:    0.0000
     atom:   26    charge:    0.8862    magn:   -0.0000    constr:    0.0000
     atom:   27    charge:    0.8862    magn:   -0.0000    constr:    0.0000
     atom:   28    charge:    0.8871    magn:   -0.0000    constr:    0.0000
     atom:   29    charge:    0.8868    magn:   -0.0000    constr:    0.0000
     atom:   30    charge:    0.8845    magn:    0.0000    constr:    0.0000
     atom:   31    charge:    0.8845    magn:    0.0000    constr:    0.0000
     atom:   32    charge:    0.8868    magn:    0.0000    constr:    0.0000
     atom:   33    charge:    0.8830    magn:   -0.0000    constr:    0.0000
     atom:   34    charge:    0.8871    magn:    0.0000    constr:    0.0000
     atom:   35    charge:    0.8830    magn:    0.0000    constr:    0.0000
     atom:   36    charge:    0.8851    magn:   -0.0000    constr:    0.0000
     atom:   37    charge:    0.8883    magn:   -0.0000    constr:    0.0000
     atom:   38    charge:    0.8845    magn:    0.0000    constr:    0.0000
     atom:   39    charge:    0.8883    magn:   -0.0000    constr:    0.0000
     atom:   40    charge:    0.8851    magn:   -0.0000    constr:    0.0000
     atom:   41    charge:    0.8865    magn:   -0.0000    constr:    0.0000
     atom:   42    charge:    0.8865    magn:    0.0000    constr:    0.0000
     atom:   43    charge:    0.8881    magn:    0.0000    constr:    0.0000
     atom:   44    charge:    0.8851    magn:   -0.0000    constr:    0.0000
     atom:   45    charge:    0.8868    magn:   -0.0000    constr:    0.0000
     atom:   46    charge:    0.8868    magn:   -0.0000    constr:    0.0000
     atom:   47    charge:    0.8851    magn:    0.0000    constr:    0.0000
     atom:   48    charge:    0.8881    magn:    0.0000    constr:    0.0000
     atom:   49    charge:    0.8844    magn:    0.0000    constr:    0.0000
     atom:   50    charge:    2.8654    magn:    0.0000    constr:    0.0000
     atom:   51    charge:    2.8727    magn:    0.0000    constr:    0.0000
     atom:   52    charge:    2.8668    magn:    0.0000    constr:    0.0000
     atom:   53    charge:    2.8696    magn:    0.0000    constr:    0.0000
     atom:   54    charge:    2.8696    magn:    0.0000    constr:    0.0000
     atom:   55    charge:    2.8668    magn:    0.0000    constr:    0.0000
     atom:   56    charge:    2.8727    magn:    0.0000    constr:    0.0000
     atom:   57    charge:    2.8693    magn:    0.0000    constr:    0.0000
     atom:   58    charge:    2.8693    magn:    0.0000    constr:    0.0000
     atom:   59    charge:    2.8668    magn:    0.0000    constr:    0.0000
     atom:   60    charge:    2.8727    magn:    0.0000    constr:    0.0000
     atom:   61    charge:    2.8656    magn:    0.0000    constr:    0.0000
     atom:   62    charge:    2.8727    magn:    0.0000    constr:    0.0000
     atom:   63    charge:    2.8668    magn:    0.0000    constr:    0.0000
     atom:   64    charge:    2.8629    magn:    0.0000    constr:    0.0000
     atom:   65    charge:    2.8708    magn:    0.0000    constr:    0.0000
     atom:   66    charge:    2.8629    magn:    0.0000    constr:    0.0000
     atom:   67    charge:    2.8696    magn:    0.0000    constr:    0.0000
     atom:   68    charge:    2.8656    magn:    0.0000    constr:    0.0000
     atom:   69    charge:    2.8656    magn:    0.0000    constr:    0.0000
     atom:   70    charge:    2.8696    magn:    0.0000    constr:    0.0000
     atom:   71    charge:    2.8707    magn:    0.0000    constr:    0.0000
     atom:   72    charge:    2.8689    magn:    0.0000    constr:    0.0000
     atom:   73    charge:    2.8689    magn:    0.0000    constr:    0.0000
     atom:   74    charge:    2.8707    magn:    0.0000    constr:    0.0000
     atom:   75    charge:    2.8696    magn:    0.0000    constr:    0.0000
     atom:   76    charge:    2.8727    magn:    0.0000    constr:    0.0000
     atom:   77    charge:    2.8696    magn:    0.0000    constr:    0.0000
     atom:   78    charge:    2.8629    magn:    0.0000    constr:    0.0000
     atom:   79    charge:    2.8689    magn:    0.0000    constr:    0.0000
     atom:   80    charge:    2.8605    magn:    0.0000    constr:    0.0000
     atom:   81    charge:    2.8689    magn:    0.0000    constr:    0.0000
     atom:   82    charge:    2.8629    magn:    0.0000    constr:    0.0000
     atom:   83    charge:    2.8668    magn:    0.0000    constr:    0.0000
     atom:   84    charge:    2.8668    magn:    0.0000    constr:    0.0000
     atom:   85    charge:    2.8693    magn:    0.0000    constr:    0.0000
     atom:   86    charge:    2.8708    magn:    0.0000    constr:    0.0000
     atom:   87    charge:    2.8689    magn:    0.0000    constr:    0.0000
     atom:   88    charge:    2.8689    magn:    0.0000    constr:    0.0000
     atom:   89    charge:    2.8708    magn:    0.0000    constr:    0.0000
     atom:   90    charge:    2.8693    magn:    0.0000    constr:    0.0000
     atom:   91    charge:    2.8727    magn:    0.0000    constr:    0.0000
     atom:   92    charge:    2.8654    magn:    0.0000    constr:    0.0000
     atom:   93    charge:    2.8693    magn:    0.0000    constr:    0.0000
     atom:   94    charge:    2.8629    magn:    0.0000    constr:    0.0000
     atom:   95    charge:    2.8707    magn:    0.0000    constr:    0.0000
     atom:   96    charge:    2.8629    magn:    0.0000    constr:    0.0000
     atom:   97    charge:    2.8693    magn:    0.0000    constr:    0.0000
     atom:   98    charge:    2.8654    magn:    0.0000    constr:    0.0000

     total cpu time spent up to now is      106.8 secs

     End of self-consistent calculation

 ------ SPIN UP ------------


          k = 0.0000 0.0000 0.0000 (161811 PWs)   bands (ev):

   -21.1326 -20.7486 -20.7486 -20.7486 -20.7485 -20.7485 -20.7485 -20.0155
   -20.0155 -20.0152 -20.0152 -20.0152 -20.0152 -19.6752 -19.6752 -19.6752
   -19.6752 -19.6752 -19.6751 -18.7584 -18.7583 -18.7583 -18.7583 -18.7583
   -18.7583 -18.7583 -18.7582 -18.7582 -18.7582 -18.7582 -18.7582 -18.3675
   -18.3673 -18.3673 -18.3672 -18.3671 -18.3671 -17.9158 -17.9158 -17.9157
   -17.9157 -17.9157 -17.9156 -17.7526 -17.7525 -17.7525 -17.7525 -17.7524
   -17.7524 -12.1464 -12.1464 -12.1464 -12.1464 -12.1463 -12.1463 -11.9429
   -11.9428 -11.9428 -11.9427 -11.9427 -11.9426 -11.4659 -11.4658 -11.4658
   -11.4658 -11.4658 -11.4658 -10.7652 -10.7652 -10.7652 -10.7652 -10.7652
   -10.7652 -10.7649 -10.7649 -10.7649 -10.7649 -10.7649 -10.7649 -10.1095
   -10.1095 -10.1095 -10.1095 -10.1095 -10.1094  -9.3989  -9.3989  -9.3989
    -9.3985  -9.3985  -9.3984  -8.7122  -8.7122  -8.7122  -8.7121  -8.7121
    -8.7121  -8.7049  -8.2795  -8.2795  -8.2795  -8.2795  -8.2794  -8.2794
    -8.2444  -8.2444  -8.2444  -8.2444  -8.2444  -8.2444  -8.2441  -8.2441
    -8.2441  -8.2441  -8.2441  -8.2441  -8.1839  -8.1839  -8.1839  -8.1839
    -8.1839  -8.1839  -7.5814  -7.5813  -7.5813  -7.5810  -7.5810  -7.5808
    -7.1810  -7.1810  -7.1808  -7.1808  -7.1808  -7.1808  -6.8959  -6.8959
    -6.8959  -6.8958  -6.8954  -6.8954  -6.7952  -6.7951  -6.7951  -6.7949
    -6.7948  -6.7948  -6.7107  -6.7107  -6.7107  -6.7106  -6.7106  -6.7106
    -6.3889  -6.3889  -6.3889  -6.3889  -6.3888  -6.3888  -5.5715  -5.5715
    -5.5714  -5.5714  -5.5714  -5.5714  -5.4112  -5.4112  -5.4112  -5.4112
    -5.4112  -5.4112  -5.4111  -5.4111  -5.4111  -5.4111  -5.4111  -5.4111
    -4.8876  -4.8875  -4.8212  -4.8211  -4.8211  -4.8210  -4.8210  -4.8210
    -4.1254  -4.1254  -4.1254  -4.1254  -4.1254  -4.1254  -3.8813  -3.8813
    -3.8813  -3.8813  -3.8813  -3.8813   1.1784   1.3434   1.3434   1.3434
     1.3434   1.3435   1.3435   1.5052   1.5052   1.5052   1.5052   1.5052
     1.5052   1.8368   1.8368   1.8368   1.8368   1.8368   1.8627   1.8628
     1.8628   1.8629   1.8629   1.8629

     occupation numbers 
     1.0000   1.0000   1.0000   1.0000   1.0000   1.0000   1.0000   1.0000
     1.0000   1.0000   1.0000   1.0000   1.0000   1.0000   1.0000   1.0000
     1.0000   1.0000   1.0000   1.0000   1.0000   1.0000   1.0000   1.0000
     1.0000   1.0000   1.0000   1.0000   1.0000   1.0000   1.0000   1.0000
     1.0000   1.0000   1.0000   1.0000   1.0000   1.0000   1.0000   1.0000
     1.0000   1.0000   1.0000   1.0000   1.0000   1.0000   1.0000   1.0000
     1.0000   1.0000   1.0000   1.0000   1.0000   1.0000   1.0000   1.0000
     1.0000   1.0000   1.0000   1.0000   1.0000   1.0000   1.0000   1.0000
     1.0000   1.0000   1.0000   1.0000   1.0000   1.0000   1.0000   1.0000
     1.0000   1.0000   1.0000   1.0000   1.0000   1.0000   1.0000   1.0000
     1.0000   1.0000   1.0000   1.0000   1.0000   1.0000   1.0000   1.0000
     1.0000   1.0000   1.0000   1.0000   1.0000   1.0000   1.0000   1.0000
     1.0000   1.0000   1.0000   1.0000   1.0000   1.0000   1.0000   1.0000
     1.0000   1.0000   1.0000   1.0000   1.0000   1.0000   1.0000   1.0000
     1.0000   1.0000   1.0000   1.0000   1.0000   1.0000   1.0000   1.0000
     1.0000   1.0000   1.0000   1.0000   1.0000   1.0000   1.0000   1.0000
     1.0000   1.0000   1.0000   1.0000   1.0000   1.0000   1.0000   1.0000
     1.0000   1.0000   1.0000   1.0000   1.0000   1.0000   1.0000   1.0000
     1.0000   1.0000   1.0000   1.0000   1.0000   1.0000   1.0000   1.0000
     1.0000   1.0000   1.0000   1.0000   1.0000   1.0000   1.0000   1.0000
     1.0000   1.0000   1.0000   1.0000   1.0000   1.0000   1.0000   1.0000
     1.0000   1.0000   1.0000   1.0000   1.0000   1.0000   1.0000   1.0000
     1.0000   1.0000   1.0000   1.0000   1.0000   1.0000   1.0000   1.0000
     1.0000   1.0000   1.0000   1.0000   1.0000   1.0000   1.0000   1.0000
     1.0000   1.0000   1.0000   1.0000   0.0000   0.0000   0.0000   0.0000
     0.0000   0.0000   0.0000   0.0000   0.0000   0.0000   0.0000   0.0000
     0.0000   0.0000   0.0000   0.0000   0.0000   0.0000   0.0000   0.0000
     0.0000   0.0000   0.0000   0.0000

          k = 0.0000 0.3849 0.0000 (161877 PWs)   bands (ev):

   -21.0893 -20.9605 -20.8330 -20.8330 -20.5815 -20.5815 -20.4578 -20.3351
   -20.3351 -20.0958 -19.9769 -19.9769 -19.8624 -19.8624 -19.6328 -19.6328
   -19.4212 -19.4212 -19.2176 -19.2042 -19.2042 -19.1104 -19.1104 -18.8090
   -18.8089 -18.7605 -18.6614 -18.6613 -18.5267 -18.5266 -18.3887 -18.3887
   -18.3433 -18.3433 -18.2004 -18.2003 -18.1293 -18.0445 -18.0444 -18.0372
   -18.0372 -18.0334 -18.0334 -17.8236 -17.8235 -17.7699 -17.7699 -17.5898
   -17.5898 -12.3281 -12.2257 -12.2257 -12.1552 -12.1552 -11.9656 -11.9655
   -11.9297 -11.9297 -11.6368 -11.6367 -11.6131 -11.6131 -11.5216 -11.5216
   -11.4721 -11.4721 -11.3240 -11.3240 -11.2615 -11.2005 -11.2005 -11.0892
   -11.0892 -10.4369 -10.4369 -10.4105 -10.4105 -10.3848 -10.3640 -10.3640
    -9.9456  -9.9456  -9.8996  -9.8996  -9.8520  -9.8519  -9.5863  -9.5862
    -9.3103  -9.3103  -9.0931  -9.0931  -8.9354  -8.9354  -8.8959  -8.8958
    -8.6590  -8.6590  -8.6460  -8.5503  -8.5503  -8.5037  -8.5037  -8.4713
    -8.4681  -8.4681  -8.3619  -8.2980  -8.2980  -8.1694  -8.1694  -7.9564
    -7.9564  -7.8848  -7.8848  -7.8821  -7.8820  -7.7880  -7.7703  -7.7702
    -7.6750  -7.6300  -7.6300  -7.6206  -7.6206  -7.6015  -7.6014  -7.5463
    -7.5463  -7.4284  -7.4284  -7.3977  -7.3371  -7.2913  -7.1311  -7.1278
    -7.1278  -7.0941  -7.0940  -6.9697  -6.9697  -6.9073  -6.9072  -6.8163
    -6.8163  -6.7220  -6.7220  -6.6523  -6.6523  -6.4046  -6.3552  -6.3552
    -6.3452  -6.3451  -6.0677  -6.0610  -6.0610  -6.0507  -6.0507  -5.9842
    -5.9165  -5.9165  -5.8729  -5.8728  -5.6023  -5.4883  -5.4882  -5.4688
    -5.4688  -5.4089  -5.2672  -5.2672  -5.2175  -5.0715  -5.0646  -5.0646
    -4.9747  -4.8694  -4.8694  -4.7962  -4.7962  -4.5654  -4.5654  -4.4505
    -4.3357  -4.3357  -4.3243  -4.3243  -4.3155  -4.3154  -3.9859  -3.9859
    -3.9069  -3.9069  -3.6065  -3.6065   1.2538   1.2543   1.2544   1.3739
     1.3892   1.3892   1.3946   1.3947   1.4676   1.4677   1.4759   1.5707
     1.5707   1.5776   1.5776   1.6942   1.6942   1.9261   1.9261   2.1226
     2.1812   2.1812   2.2337   2.2338

     occupation numbers 
     1.0000   1.0000   1.0000   1.0000   1.0000   1.0000   1.0000   1.0000
     1.0000   1.0000   1.0000   1.0000   1.0000   1.0000   1.0000   1.0000
     1.0000   1.0000   1.0000   1.0000   1.0000   1.0000   1.0000   1.0000
     1.0000   1.0000   1.0000   1.0000   1.0000   1.0000   1.0000   1.0000
     1.0000   1.0000   1.0000   1.0000   1.0000   1.0000   1.0000   1.0000
     1.0000   1.0000   1.0000   1.0000   1.0000   1.0000   1.0000   1.0000
     1.0000   1.0000   1.0000   1.0000   1.0000   1.0000   1.0000   1.0000
     1.0000   1.0000   1.0000   1.0000   1.0000   1.0000   1.0000   1.0000
     1.0000   1.0000   1.0000   1.0000   1.0000   1.0000   1.0000   1.0000
     1.0000   1.0000   1.0000   1.0000   1.0000   1.0000   1.0000   1.0000
     1.0000   1.0000   1.0000   1.0000   1.0000   1.0000   1.0000   1.0000
     1.0000   1.0000   1.0000   1.0000   1.0000   1.0000   1.0000   1.0000
     1.0000   1.0000   1.0000   1.0000   1.0000   1.0000   1.0000   1.0000
     1.0000   1.0000   1.0000   1.0000   1.0000   1.0000   1.0000   1.0000
     1.0000   1.0000   1.0000   1.0000   1.0000   1.0000   1.0000   1.0000
     1.0000   1.0000   1.0000   1.0000   1.0000   1.0000   1.0000   1.0000
     1.0000   1.0000   1.0000   1.0000   1.0000   1.0000   1.0000   1.0000
     1.0000   1.0000   1.0000   1.0000   1.0000   1.0000   1.0000   1.0000
     1.0000   1.0000   1.0000   1.0000   1.0000   1.0000   1.0000   1.0000
     1.0000   1.0000   1.0000   1.0000   1.0000   1.0000   1.0000   1.0000
     1.0000   1.0000   1.0000   1.0000   1.0000   1.0000   1.0000   1.0000
     1.0000   1.0000   1.0000   1.0000   1.0000   1.0000   1.0000   1.0000
     1.0000   1.0000   1.0000   1.0000   1.0000   1.0000   1.0000   1.0000
     1.0000   1.0000   1.0000   1.0000   1.0000   1.0000   1.0000   1.0000
     1.0000   1.0000   1.0000   1.0000   0.0000   0.0000   0.0000   0.0000
     0.0000   0.0000   0.0000   0.0000   0.0000   0.0000   0.0000   0.0000
     0.0000   0.0000   0.0000   0.0000   0.0000   0.0000   0.0000   0.0000
     0.0000   0.0000   0.0000   0.0000

          k = 0.3333 0.5774 0.0000 (161838 PWs)   bands (ev):

   -21.0034 -21.0033 -21.0033 -20.6230 -20.6230 -20.6229 -20.2548 -20.2548
   -20.2548 -20.2546 -20.2546 -20.2546 -19.5617 -19.5615 -19.5615 -19.5614
   -19.5614 -19.5613 -19.2360 -19.2360 -19.2359 -18.9598 -18.9597 -18.9597
   -18.9596 -18.9596 -18.9596 -18.4048 -18.4048 -18.4048 -18.2764 -18.2764
   -18.2764 -18.2763 -18.2763 -18.2763 -18.0756 -18.0754 -18.0754 -18.0341
   -18.0341 -18.0341 -18.0341 -18.0341 -18.0340 -17.6704 -17.6703 -17.6703
   -17.5256 -12.3520 -12.3520 -12.3517 -11.8558 -11.8558 -11.8558 -11.8555
   -11.8555 -11.8555 -11.7549 -11.7548 -11.7548 -11.6230 -11.6230 -11.6229
   -11.6229 -11.6229 -11.6229 -11.4068 -10.9020 -10.9020 -10.9020 -10.8297
   -10.8297 -10.8297 -10.8296 -10.8296 -10.8296 -10.6785  -9.9385  -9.9385
    -9.9385  -9.7540  -9.7535  -9.7534  -9.4300  -9.4300  -9.4299  -9.4296
    -9.4296  -9.4295  -9.1874  -9.1874  -9.1874  -9.1873  -9.1873  -9.1873
    -9.1426  -9.1426  -9.1426  -8.5294  -8.5294  -8.5294  -8.0727  -8.0726
    -8.0726  -8.0723  -8.0723  -8.0723  -8.0346  -8.0346  -8.0342  -8.0127
    -8.0127  -8.0126  -7.8775  -7.8774  -7.8774  -7.8774  -7.8774  -7.8774
    -7.8165  -7.8161  -7.8160  -7.5103  -7.5103  -7.5103  -7.5102  -7.5101
    -7.5101  -7.4020  -7.4020  -7.4020  -7.4018  -7.4018  -7.4018  -7.2418
    -7.2416  -7.2415  -7.2413  -7.2413  -7.2412  -6.7242  -6.7242  -6.7242
    -6.5514  -6.5513  -6.5513  -6.5512  -6.5512  -6.5512  -6.3052  -6.3052
    -6.3052  -6.3049  -6.3049  -6.3048  -6.0968  -6.0967  -6.0967  -5.8721
    -5.8721  -5.8720  -5.6992  -5.6992  -5.6991  -5.6990  -5.6990  -5.6990
    -5.4221  -5.4220  -5.4220  -5.1503  -5.1503  -5.1502  -4.8958  -4.8957
    -4.8957  -4.6884  -4.6884  -4.6884  -4.6883  -4.6883  -4.6883  -4.3666
    -4.3665  -4.3664  -4.3259  -4.3259  -4.3259  -4.3259  -4.3259  -4.3258
    -3.7400  -3.7400  -3.7400  -3.4947   1.1779   1.2903   1.2904   1.2904
     1.3140   1.3141   1.3141   1.4025   1.4025   1.4026   1.7861   1.7861
     1.7861   1.7861   1.7862   1.7862   1.8634   1.8634   1.8634   1.8635
     1.8635   1.8635   2.0534   2.0535

     occupation numbers 
     1.0000   1.0000   1.0000   1.0000   1.0000   1.0000   1.0000   1.0000
     1.0000   1.0000   1.0000   1.0000   1.0000   1.0000   1.0000   1.0000
     1.0000   1.0000   1.0000   1.0000   1.0000   1.0000   1.0000   1.0000
     1.0000   1.0000   1.0000   1.0000   1.0000   1.0000   1.0000   1.0000
     1.0000   1.0000   1.0000   1.0000   1.0000   1.0000   1.0000   1.0000
     1.0000   1.0000   1.0000   1.0000   1.0000   1.0000   1.0000   1.0000
     1.0000   1.0000   1.0000   1.0000   1.0000   1.0000   1.0000   1.0000
     1.0000   1.0000   1.0000   1.0000   1.0000   1.0000   1.0000   1.0000
     1.0000   1.0000   1.0000   1.0000   1.0000   1.0000   1.0000   1.0000
     1.0000   1.0000   1.0000   1.0000   1.0000   1.0000   1.0000   1.0000
     1.0000   1.0000   1.0000   1.0000   1.0000   1.0000   1.0000   1.0000
     1.0000   1.0000   1.0000   1.0000   1.0000   1.0000   1.0000   1.0000
     1.0000   1.0000   1.0000   1.0000   1.0000   1.0000   1.0000   1.0000
     1.0000   1.0000   1.0000   1.0000   1.0000   1.0000   1.0000   1.0000
     1.0000   1.0000   1.0000   1.0000   1.0000   1.0000   1.0000   1.0000
     1.0000   1.0000   1.0000   1.0000   1.0000   1.0000   1.0000   1.0000
     1.0000   1.0000   1.0000   1.0000   1.0000   1.0000   1.0000   1.0000
     1.0000   1.0000   1.0000   1.0000   1.0000   1.0000   1.0000   1.0000
     1.0000   1.0000   1.0000   1.0000   1.0000   1.0000   1.0000   1.0000
     1.0000   1.0000   1.0000   1.0000   1.0000   1.0000   1.0000   1.0000
     1.0000   1.0000   1.0000   1.0000   1.0000   1.0000   1.0000   1.0000
     1.0000   1.0000   1.0000   1.0000   1.0000   1.0000   1.0000   1.0000
     1.0000   1.0000   1.0000   1.0000   1.0000   1.0000   1.0000   1.0000
     1.0000   1.0000   1.0000   1.0000   1.0000   1.0000   1.0000   1.0000
     1.0000   1.0000   1.0000   1.0000   0.0000   0.0000   0.0000   0.0000
     0.0000   0.0000   0.0000   0.0000   0.0000   0.0000   0.0000   0.0000
     0.0000   0.0000   0.0000   0.0000   0.0000   0.0000   0.0000   0.0000
     0.0000   0.0000   0.0000   0.0000

 ------ SPIN DOWN ----------


          k = 0.0000 0.0000 0.0000 (161811 PWs)   bands (ev):

   -21.1326 -20.7486 -20.7486 -20.7486 -20.7485 -20.7485 -20.7485 -20.0155
   -20.0155 -20.0152 -20.0152 -20.0152 -20.0152 -19.6752 -19.6752 -19.6752
   -19.6752 -19.6752 -19.6751 -18.7584 -18.7583 -18.7583 -18.7583 -18.7583
   -18.7583 -18.7583 -18.7582 -18.7582 -18.7582 -18.7582 -18.7582 -18.3675
   -18.3673 -18.3673 -18.3672 -18.3671 -18.3671 -17.9158 -17.9158 -17.9157
   -17.9157 -17.9157 -17.9156 -17.7526 -17.7525 -17.7525 -17.7525 -17.7524
   -17.7524 -12.1464 -12.1464 -12.1464 -12.1464 -12.1463 -12.1463 -11.9429
   -11.9428 -11.9428 -11.9427 -11.9427 -11.9426 -11.4659 -11.4658 -11.4658
   -11.4658 -11.4658 -11.4658 -10.7652 -10.7652 -10.7652 -10.7652 -10.7652
   -10.7652 -10.7649 -10.7649 -10.7649 -10.7649 -10.7649 -10.7649 -10.1095
   -10.1095 -10.1095 -10.1095 -10.1095 -10.1094  -9.3989  -9.3989  -9.3989
    -9.3985  -9.3985  -9.3984  -8.7122  -8.7122  -8.7122  -8.7121  -8.7121
    -8.7121  -8.7049  -8.2795  -8.2795  -8.2795  -8.2795  -8.2794  -8.2794
    -8.2444  -8.2444  -8.2444  -8.2444  -8.2444  -8.2444  -8.2441  -8.2441
    -8.2441  -8.2441  -8.2441  -8.2441  -8.1839  -8.1839  -8.1839  -8.1839
    -8.1839  -8.1839  -7.5814  -7.5813  -7.5813  -7.5810  -7.5810  -7.5808
    -7.1810  -7.1810  -7.1808  -7.1808  -7.1808  -7.1808  -6.8959  -6.8959
    -6.8959  -6.8958  -6.8954  -6.8954  -6.7952  -6.7951  -6.7951  -6.7949
    -6.7948  -6.7948  -6.7107  -6.7107  -6.7107  -6.7106  -6.7106  -6.7106
    -6.3889  -6.3889  -6.3889  -6.3889  -6.3888  -6.3888  -5.5715  -5.5715
    -5.5714  -5.5714  -5.5714  -5.5714  -5.4112  -5.4112  -5.4112  -5.4112
    -5.4112  -5.4112  -5.4111  -5.4111  -5.4111  -5.4111  -5.4111  -5.4111
    -4.8876  -4.8875  -4.8212  -4.8211  -4.8211  -4.8210  -4.8210  -4.8210
    -4.1254  -4.1254  -4.1254  -4.1254  -4.1254  -4.1254  -3.8813  -3.8813
    -3.8813  -3.8813  -3.8813  -3.8813   1.1784   1.3434   1.3434   1.3434
     1.3434   1.3435   1.3435   1.5052   1.5052   1.5052   1.5052   1.5052
     1.5052   1.8368   1.8368   1.8368   1.8368   1.8368   1.8627   1.8628
     1.8628   1.8629   1.8629   1.8629

     occupation numbers 
     1.0000   1.0000   1.0000   1.0000   1.0000   1.0000   1.0000   1.0000
     1.0000   1.0000   1.0000   1.0000   1.0000   1.0000   1.0000   1.0000
     1.0000   1.0000   1.0000   1.0000   1.0000   1.0000   1.0000   1.0000
     1.0000   1.0000   1.0000   1.0000   1.0000   1.0000   1.0000   1.0000
     1.0000   1.0000   1.0000   1.0000   1.0000   1.0000   1.0000   1.0000
     1.0000   1.0000   1.0000   1.0000   1.0000   1.0000   1.0000   1.0000
     1.0000   1.0000   1.0000   1.0000   1.0000   1.0000   1.0000   1.0000
     1.0000   1.0000   1.0000   1.0000   1.0000   1.0000   1.0000   1.0000
     1.0000   1.0000   1.0000   1.0000   1.0000   1.0000   1.0000   1.0000
     1.0000   1.0000   1.0000   1.0000   1.0000   1.0000   1.0000   1.0000
     1.0000   1.0000   1.0000   1.0000   1.0000   1.0000   1.0000   1.0000
     1.0000   1.0000   1.0000   1.0000   1.0000   1.0000   1.0000   1.0000
     1.0000   1.0000   1.0000   1.0000   1.0000   1.0000   1.0000   1.0000
     1.0000   1.0000   1.0000   1.0000   1.0000   1.0000   1.0000   1.0000
     1.0000   1.0000   1.0000   1.0000   1.0000   1.0000   1.0000   1.0000
     1.0000   1.0000   1.0000   1.0000   1.0000   1.0000   1.0000   1.0000
     1.0000   1.0000   1.0000   1.0000   1.0000   1.0000   1.0000   1.0000
     1.0000   1.0000   1.0000   1.0000   1.0000   1.0000   1.0000   1.0000
     1.0000   1.0000   1.0000   1.0000   1.0000   1.0000   1.0000   1.0000
     1.0000   1.0000   1.0000   1.0000   1.0000   1.0000   1.0000   1.0000
     1.0000   1.0000   1.0000   1.0000   1.0000   1.0000   1.0000   1.0000
     1.0000   1.0000   1.0000   1.0000   1.0000   1.0000   1.0000   1.0000
     1.0000   1.0000   1.0000   1.0000   1.0000   1.0000   1.0000   1.0000
     1.0000   1.0000   1.0000   1.0000   1.0000   1.0000   1.0000   1.0000
     1.0000   1.0000   1.0000   1.0000   0.0000   0.0000   0.0000   0.0000
     0.0000   0.0000   0.0000   0.0000   0.0000   0.0000   0.0000   0.0000
     0.0000   0.0000   0.0000   0.0000   0.0000   0.0000   0.0000   0.0000
     0.0000   0.0000   0.0000   0.0000

          k = 0.0000 0.3849 0.0000 (161877 PWs)   bands (ev):

   -21.0893 -20.9605 -20.8330 -20.8330 -20.5815 -20.5815 -20.4578 -20.3351
   -20.3351 -20.0958 -19.9769 -19.9769 -19.8624 -19.8624 -19.6328 -19.6328
   -19.4212 -19.4212 -19.2176 -19.2042 -19.2042 -19.1104 -19.1104 -18.8090
   -18.8089 -18.7605 -18.6614 -18.6613 -18.5267 -18.5266 -18.3887 -18.3887
   -18.3433 -18.3433 -18.2004 -18.2003 -18.1293 -18.0445 -18.0444 -18.0372
   -18.0372 -18.0334 -18.0334 -17.8236 -17.8235 -17.7699 -17.7699 -17.5898
   -17.5898 -12.3281 -12.2257 -12.2257 -12.1552 -12.1552 -11.9656 -11.9655
   -11.9297 -11.9297 -11.6368 -11.6367 -11.6131 -11.6131 -11.5216 -11.5216
   -11.4721 -11.4721 -11.3240 -11.3240 -11.2615 -11.2005 -11.2005 -11.0892
   -11.0892 -10.4369 -10.4369 -10.4105 -10.4105 -10.3848 -10.3640 -10.3640
    -9.9456  -9.9456  -9.8996  -9.8996  -9.8520  -9.8519  -9.5863  -9.5862
    -9.3103  -9.3103  -9.0931  -9.0931  -8.9354  -8.9354  -8.8959  -8.8958
    -8.6590  -8.6590  -8.6460  -8.5503  -8.5503  -8.5037  -8.5037  -8.4713
    -8.4681  -8.4681  -8.3619  -8.2980  -8.2980  -8.1694  -8.1694  -7.9564
    -7.9564  -7.8848  -7.8848  -7.8821  -7.8820  -7.7880  -7.7703  -7.7702
    -7.6750  -7.6300  -7.6300  -7.6206  -7.6206  -7.6015  -7.6014  -7.5463
    -7.5463  -7.4284  -7.4284  -7.3977  -7.3371  -7.2913  -7.1311  -7.1278
    -7.1278  -7.0941  -7.0940  -6.9697  -6.9697  -6.9073  -6.9072  -6.8163
    -6.8163  -6.7220  -6.7220  -6.6523  -6.6523  -6.4046  -6.3552  -6.3552
    -6.3452  -6.3451  -6.0677  -6.0610  -6.0610  -6.0507  -6.0507  -5.9842
    -5.9165  -5.9165  -5.8729  -5.8728  -5.6023  -5.4883  -5.4882  -5.4688
    -5.4688  -5.4089  -5.2672  -5.2672  -5.2175  -5.0715  -5.0646  -5.0646
    -4.9747  -4.8694  -4.8694  -4.7962  -4.7962  -4.5654  -4.5654  -4.4505
    -4.3357  -4.3357  -4.3243  -4.3243  -4.3155  -4.3154  -3.9859  -3.9859
    -3.9069  -3.9069  -3.6065  -3.6065   1.2538   1.2543   1.2544   1.3739
     1.3892   1.3892   1.3946   1.3947   1.4676   1.4677   1.4759   1.5707
     1.5707   1.5776   1.5776   1.6942   1.6942   1.9261   1.9261   2.1226
     2.1812   2.1812   2.2337   2.2338

     occupation numbers 
     1.0000   1.0000   1.0000   1.0000   1.0000   1.0000   1.0000   1.0000
     1.0000   1.0000   1.0000   1.0000   1.0000   1.0000   1.0000   1.0000
     1.0000   1.0000   1.0000   1.0000   1.0000   1.0000   1.0000   1.0000
     1.0000   1.0000   1.0000   1.0000   1.0000   1.0000   1.0000   1.0000
     1.0000   1.0000   1.0000   1.0000   1.0000   1.0000   1.0000   1.0000
     1.0000   1.0000   1.0000   1.0000   1.0000   1.0000   1.0000   1.0000
     1.0000   1.0000   1.0000   1.0000   1.0000   1.0000   1.0000   1.0000
     1.0000   1.0000   1.0000   1.0000   1.0000   1.0000   1.0000   1.0000
     1.0000   1.0000   1.0000   1.0000   1.0000   1.0000   1.0000   1.0000
     1.0000   1.0000   1.0000   1.0000   1.0000   1.0000   1.0000   1.0000
     1.0000   1.0000   1.0000   1.0000   1.0000   1.0000   1.0000   1.0000
     1.0000   1.0000   1.0000   1.0000   1.0000   1.0000   1.0000   1.0000
     1.0000   1.0000   1.0000   1.0000   1.0000   1.0000   1.0000   1.0000
     1.0000   1.0000   1.0000   1.0000   1.0000   1.0000   1.0000   1.0000
     1.0000   1.0000   1.0000   1.0000   1.0000   1.0000   1.0000   1.0000
     1.0000   1.0000   1.0000   1.0000   1.0000   1.0000   1.0000   1.0000
     1.0000   1.0000   1.0000   1.0000   1.0000   1.0000   1.0000   1.0000
     1.0000   1.0000   1.0000   1.0000   1.0000   1.0000   1.0000   1.0000
     1.0000   1.0000   1.0000   1.0000   1.0000   1.0000   1.0000   1.0000
     1.0000   1.0000   1.0000   1.0000   1.0000   1.0000   1.0000   1.0000
     1.0000   1.0000   1.0000   1.0000   1.0000   1.0000   1.0000   1.0000
     1.0000   1.0000   1.0000   1.0000   1.0000   1.0000   1.0000   1.0000
     1.0000   1.0000   1.0000   1.0000   1.0000   1.0000   1.0000   1.0000
     1.0000   1.0000   1.0000   1.0000   1.0000   1.0000   1.0000   1.0000
     1.0000   1.0000   1.0000   1.0000   0.0000   0.0000   0.0000   0.0000
     0.0000   0.0000   0.0000   0.0000   0.0000   0.0000   0.0000   0.0000
     0.0000   0.0000   0.0000   0.0000   0.0000   0.0000   0.0000   0.0000
     0.0000   0.0000   0.0000   0.0000

          k = 0.3333 0.5774 0.0000 (161838 PWs)   bands (ev):

   -21.0034 -21.0033 -21.0033 -20.6230 -20.6230 -20.6229 -20.2548 -20.2548
   -20.2548 -20.2546 -20.2546 -20.2546 -19.5617 -19.5615 -19.5615 -19.5614
   -19.5614 -19.5613 -19.2360 -19.2360 -19.2359 -18.9598 -18.9597 -18.9597
   -18.9596 -18.9596 -18.9596 -18.4048 -18.4048 -18.4048 -18.2764 -18.2764
   -18.2764 -18.2763 -18.2763 -18.2763 -18.0756 -18.0754 -18.0754 -18.0341
   -18.0341 -18.0341 -18.0341 -18.0341 -18.0340 -17.6704 -17.6703 -17.6703
   -17.5256 -12.3520 -12.3520 -12.3517 -11.8558 -11.8558 -11.8558 -11.8555
   -11.8555 -11.8555 -11.7549 -11.7548 -11.7548 -11.6230 -11.6230 -11.6229
   -11.6229 -11.6229 -11.6229 -11.4068 -10.9020 -10.9020 -10.9020 -10.8297
   -10.8297 -10.8297 -10.8296 -10.8296 -10.8296 -10.6785  -9.9385  -9.9385
    -9.9385  -9.7540  -9.7535  -9.7534  -9.4300  -9.4300  -9.4299  -9.4296
    -9.4296  -9.4295  -9.1874  -9.1874  -9.1874  -9.1873  -9.1873  -9.1873
    -9.1426  -9.1426  -9.1426  -8.5294  -8.5294  -8.5294  -8.0727  -8.0726
    -8.0726  -8.0723  -8.0723  -8.0723  -8.0346  -8.0346  -8.0342  -8.0127
    -8.0127  -8.0126  -7.8775  -7.8774  -7.8774  -7.8774  -7.8774  -7.8774
    -7.8165  -7.8161  -7.8160  -7.5103  -7.5103  -7.5103  -7.5102  -7.5101
    -7.5101  -7.4020  -7.4020  -7.4020  -7.4018  -7.4018  -7.4018  -7.2418
    -7.2416  -7.2415  -7.2413  -7.2413  -7.2412  -6.7242  -6.7242  -6.7242
    -6.5514  -6.5513  -6.5513  -6.5512  -6.5512  -6.5512  -6.3052  -6.3052
    -6.3052  -6.3049  -6.3049  -6.3048  -6.0968  -6.0967  -6.0967  -5.8721
    -5.8721  -5.8720  -5.6992  -5.6992  -5.6991  -5.6990  -5.6990  -5.6990
    -5.4221  -5.4220  -5.4220  -5.1503  -5.1503  -5.1502  -4.8958  -4.8957
    -4.8957  -4.6884  -4.6884  -4.6884  -4.6883  -4.6883  -4.6883  -4.3666
    -4.3665  -4.3664  -4.3259  -4.3259  -4.3259  -4.3259  -4.3259  -4.3258
    -3.7400  -3.7400  -3.7400  -3.4947   1.1779   1.2903   1.2904   1.2904
     1.3140   1.3141   1.3141   1.4025   1.4025   1.4026   1.7861   1.7861
     1.7861   1.7861   1.7862   1.7862   1.8634   1.8634   1.8634   1.8635
     1.8635   1.8635   2.0534   2.0535

     occupation numbers 
     1.0000   1.0000   1.0000   1.0000   1.0000   1.0000   1.0000   1.0000
     1.0000   1.0000   1.0000   1.0000   1.0000   1.0000   1.0000   1.0000
     1.0000   1.0000   1.0000   1.0000   1.0000   1.0000   1.0000   1.0000
     1.0000   1.0000   1.0000   1.0000   1.0000   1.0000   1.0000   1.0000
     1.0000   1.0000   1.0000   1.0000   1.0000   1.0000   1.0000   1.0000
     1.0000   1.0000   1.0000   1.0000   1.0000   1.0000   1.0000   1.0000
     1.0000   1.0000   1.0000   1.0000   1.0000   1.0000   1.0000   1.0000
     1.0000   1.0000   1.0000   1.0000   1.0000   1.0000   1.0000   1.0000
     1.0000   1.0000   1.0000   1.0000   1.0000   1.0000   1.0000   1.0000
     1.0000   1.0000   1.0000   1.0000   1.0000   1.0000   1.0000   1.0000
     1.0000   1.0000   1.0000   1.0000   1.0000   1.0000   1.0000   1.0000
     1.0000   1.0000   1.0000   1.0000   1.0000   1.0000   1.0000   1.0000
     1.0000   1.0000   1.0000   1.0000   1.0000   1.0000   1.0000   1.0000
     1.0000   1.0000   1.0000   1.0000   1.0000   1.0000   1.0000   1.0000
     1.0000   1.0000   1.0000   1.0000   1.0000   1.0000   1.0000   1.0000
     1.0000   1.0000   1.0000   1.0000   1.0000   1.0000   1.0000   1.0000
     1.0000   1.0000   1.0000   1.0000   1.0000   1.0000   1.0000   1.0000
     1.0000   1.0000   1.0000   1.0000   1.0000   1.0000   1.0000   1.0000
     1.0000   1.0000   1.0000   1.0000   1.0000   1.0000   1.0000   1.0000
     1.0000   1.0000   1.0000   1.0000   1.0000   1.0000   1.0000   1.0000
     1.0000   1.0000   1.0000   1.0000   1.0000   1.0000   1.0000   1.0000
     1.0000   1.0000   1.0000   1.0000   1.0000   1.0000   1.0000   1.0000
     1.0000   1.0000   1.0000   1.0000   1.0000   1.0000   1.0000   1.0000
     1.0000   1.0000   1.0000   1.0000   1.0000   1.0000   1.0000   1.0000
     1.0000   1.0000   1.0000   1.0000   0.0000   0.0000   0.0000   0.0000
     0.0000   0.0000   0.0000   0.0000   0.0000   0.0000   0.0000   0.0000
     0.0000   0.0000   0.0000   0.0000   0.0000   0.0000   0.0000   0.0000
     0.0000   0.0000   0.0000   0.0000

     highest occupied, lowest unoccupied level (ev):    -3.4947    1.1779

!    total energy              =   -1261.17064433 Ry
     Harris-Foulkes estimate   =   -1261.17064434 Ry
     estimated scf accuracy    <          8.3E-09 Ry

     The total energy is the sum of the following terms:

     one-electron contribution =   -7588.63750696 Ry
     hartree contribution      =    3875.62544749 Ry
     xc contribution           =    -360.64538661 Ry
     ewald contribution        =    2812.48680175 Ry

     total magnetization       =     0.00 Bohr mag/cell
     absolute magnetization    =     0.00 Bohr mag/cell

     convergence has been achieved in  11 iterations

     Forces acting on atoms (cartesian axes, Ry/au):

     atom    1 type  1   force =     0.00000000    0.00006276    0.00000000
     atom    2 type  1   force =     0.00002534   -0.00002729   -0.00000000
     atom    3 type  1   force =     0.00005211    0.00008046    0.00000000
     atom    4 type  1   force =    -0.00000046   -0.00000027   -0.00000000
     atom    5 type  1   force =     0.00009574    0.00000489    0.00000000
     atom    6 type  1   force =    -0.00001096    0.00003558    0.00000000
     atom    7 type  1   force =     0.00005435   -0.00003138    0.00000000
     atom    8 type  1   force =     0.00001529    0.00000883   -0.00000000
     atom    9 type  1   force =    -0.00002534   -0.00002729    0.00000000
     atom   10 type  1   force =     0.00000000    0.00001735   -0.00000000
     atom   11 type  1   force =    -0.00000119   -0.00002678    0.00000000
     atom   12 type  1   force =    -0.00002379    0.00001236    0.00000000
     atom   13 type  1   force =     0.00001502   -0.00000867    0.00000000
     atom   14 type  1   force =    -0.00003630   -0.00000830   -0.00000000
     atom   15 type  1   force =    -0.00003711    0.00004634   -0.00000000
     atom   16 type  1   force =     0.00002158   -0.00005531   -0.00000000
     atom   17 type  1   force =    -0.00005211    0.00008046    0.00000000
     atom   18 type  1   force =     0.00000119   -0.00002678    0.00000000
     atom   19 type  1   force =     0.00000000   -0.00000000    0.00000000
     atom   20 type  1   force =    -0.00002260    0.00001442    0.00000000
     atom   21 type  1   force =     0.00004363   -0.00008536    0.00000000
     atom   22 type  1   force =     0.00004001    0.00002289    0.00000000
     atom   23 type  1   force =    -0.00001099   -0.00000635    0.00000000
     atom   24 type  1   force =     0.00003983    0.00002320    0.00000000
     atom   25 type  1   force =     0.00000046   -0.00000027    0.00000000
     atom   26 type  1   force =     0.00002379    0.00001236    0.00000000
     atom   27 type  1   force =     0.00002260    0.00001442    0.00000000
     atom   28 type  1   force =    -0.00000000    0.00000053    0.00000000
     atom   29 type  1   force =    -0.00004001    0.00002289    0.00000000
     atom   30 type  1   force =     0.00000000   -0.00006985    0.00000000
     atom   31 type  1   force =    -0.00006049    0.00003492    0.00000000
     atom   32 type  1   force =    -0.00000018   -0.00004609    0.00000000
     atom   33 type  1   force =    -0.00009574    0.00000489   -0.00000000
     atom   34 type  1   force =    -0.00001502   -0.00000867    0.00000000
     atom   35 type  1   force =    -0.00004363   -0.00008536   -0.00000000
     atom   36 type  1   force =     0.00003711    0.00004634    0.00000000
     atom   37 type  1   force =     0.00001099   -0.00000635    0.00000000
     atom   38 type  1   force =     0.00006049    0.00003492   -0.00000000
     atom   39 type  1   force =     0.00000000    0.00001269    0.00000000
     atom   40 type  1   force =     0.00005869    0.00000897   -0.00000000
     atom   41 type  1   force =     0.00001096    0.00003558   -0.00000000
     atom   42 type  1   force =     0.00003630   -0.00000830    0.00000000
     atom   43 type  1   force =    -0.00001529    0.00000883    0.00000000
     atom   44 type  1   force =    -0.00002158   -0.00005531   -0.00000000
     atom   45 type  1   force =    -0.00003983    0.00002320    0.00000000
     atom   46 type  1   force =     0.00000018   -0.00004609    0.00000000
     atom   47 type  1   force =    -0.00005869    0.00000897    0.00000000
     atom   48 type  1   force =     0.00000000   -0.00001766   -0.00000000
     atom   49 type  1   force =    -0.00005435   -0.00003138   -0.00000000
     atom   50 type  2   force =     0.00116442    0.00067228    0.00000000
     atom   51 type  2   force =     0.00000000    0.00020102    0.00000000
     atom   52 type  2   force =     0.00118418   -0.00002860    0.00000000
     atom   53 type  2   force =     0.00009409    0.00067638    0.00000000
     atom   54 type  2   force =     0.00063281   -0.00025671    0.00000000
     atom   55 type  2   force =     0.00056732    0.00103983   -0.00000000
     atom   56 type  2   force =     0.00017409   -0.00010051    0.00000000
     atom   57 type  2   force =    -0.00062513    0.00021481   -0.00000000
     atom   58 type  2   force =    -0.00012653   -0.00064878   -0.00000000
     atom   59 type  2   force =    -0.00118418   -0.00002860    0.00000000
     atom   60 type  2   force =     0.00000000   -0.00018682    0.00000000
     atom   61 type  2   force =    -0.00118942   -0.00068671   -0.00000000
     atom   62 type  2   force =    -0.00016179    0.00009341    0.00000000
     atom   63 type  2   force =    -0.00061686   -0.00101123   -0.00000000
     atom   64 type  2   force =     0.00052834    0.00093091   -0.00000000
     atom   65 type  2   force =     0.00010796    0.00006233    0.00000000
     atom   66 type  2   force =     0.00107036   -0.00000790    0.00000000
     atom   67 type  2   force =    -0.00009409    0.00067638   -0.00000000
     atom   68 type  2   force =     0.00118942   -0.00068671    0.00000000
     atom   69 type  2   force =     0.00000000    0.00137343   -0.00000000
     atom   70 type  2   force =     0.00053872   -0.00041967    0.00000000
     atom   71 type  2   force =     0.00000000    0.00007130    0.00000000
     atom   72 type  2   force =    -0.00021207   -0.00029579   -0.00000000
     atom   73 type  2   force =    -0.00036220   -0.00003576   -0.00000000
     atom   74 type  2   force =     0.00006174   -0.00003565    0.00000000
     atom   75 type  2   force =    -0.00063281   -0.00025671   -0.00000000
     atom   76 type  2   force =     0.00016179    0.00009341    0.00000000
     atom   77 type  2   force =    -0.00053872   -0.00041967    0.00000000
     atom   78 type  2   force =    -0.00052834    0.00093091    0.00000000
     atom   79 type  2   force =     0.00021207   -0.00029579    0.00000000
     atom   80 type  2   force =     0.00000000   -0.00000000    0.00000000
     atom   81 type  2   force =    -0.00015013    0.00033155   -0.00000000
     atom   82 type  2   force =     0.00054203   -0.00092301    0.00000000
     atom   83 type  2   force =    -0.00056732    0.00103983   -0.00000000
     atom   84 type  2   force =     0.00061686   -0.00101123    0.00000000
     atom   85 type  2   force =     0.00062513    0.00021481   -0.00000000
     atom   86 type  2   force =    -0.00010796    0.00006233    0.00000000
     atom   87 type  2   force =     0.00036220   -0.00003576    0.00000000
     atom   88 type  2   force =     0.00015013    0.00033155    0.00000000
     atom   89 type  2   force =     0.00000000   -0.00012466    0.00000000
     atom   90 type  2   force =     0.00049860    0.00043397    0.00000000
     atom   91 type  2   force =    -0.00017409   -0.00010051    0.00000000
     atom   92 type  2   force =    -0.00116442    0.00067228   -0.00000000
     atom   93 type  2   force =     0.00012653   -0.00064878    0.00000000
     atom   94 type  2   force =    -0.00107036   -0.00000790    0.00000000
     atom   95 type  2   force =    -0.00006174   -0.00003565   -0.00000000
     atom   96 type  2   force =    -0.00054203   -0.00092301   -0.00000000
     atom   97 type  2   force =    -0.00049860    0.00043397   -0.00000000
     atom   98 type  2   force =     0.00000000   -0.00134455    0.00000000
     The non-local contrib.  to forces
     atom    1 type  1   force =     0.00000000    0.00004015    0.00000000
     atom    2 type  1   force =     0.00001520   -0.00002709    0.00000000
     atom    3 type  1   force =     0.00006030    0.00007453    0.00000000
     atom    4 type  1   force =    -0.00000530   -0.00000306   -0.00000000
     atom    5 type  1   force =     0.00009469    0.00001496    0.00000000
     atom    6 type  1   force =    -0.00001586    0.00002671   -0.00000000
     atom    7 type  1   force =     0.00003477   -0.00002008   -0.00000000
     atom    8 type  1   force =     0.00002351    0.00001358    0.00000000
     atom    9 type  1   force =    -0.00001520   -0.00002709   -0.00000000
     atom   10 type  1   force =     0.00000000    0.00002769    0.00000000
     atom   11 type  1   force =     0.00000634   -0.00003308    0.00000000
     atom   12 type  1   force =    -0.00002548    0.00002203   -0.00000000
     atom   13 type  1   force =     0.00002398   -0.00001384    0.00000000
     atom   14 type  1   force =    -0.00003106    0.00000038    0.00000000
     atom   15 type  1   force =    -0.00004381    0.00003782    0.00000000
     atom   16 type  1   force =     0.00001084   -0.00005685    0.00000000
     atom   17 type  1   force =    -0.00006030    0.00007453    0.00000000
     atom   18 type  1   force =    -0.00000634   -0.00003308    0.00000000
     atom   19 type  1   force =     0.00000000   -0.00000000    0.00000000
     atom   20 type  1   force =    -0.00003182    0.00001105   -0.00000000
     atom   21 type  1   force =     0.00003439   -0.00008948   -0.00000000
     atom   22 type  1   force =     0.00005031    0.00002733    0.00000000
     atom   23 type  1   force =    -0.00000838   -0.00000484    0.00000000
     atom   24 type  1   force =     0.00004882    0.00002990    0.00000000
     atom   25 type  1   force =     0.00000530   -0.00000306   -0.00000000
     atom   26 type  1   force =     0.00002548    0.00002203   -0.00000000
     atom   27 type  1   force =     0.00003182    0.00001105   -0.00000000
     atom   28 type  1   force =     0.00000000    0.00000613    0.00000000
     atom   29 type  1   force =    -0.00005031    0.00002733   -0.00000000
     atom   30 type  1   force =     0.00000000   -0.00007419   -0.00000000
     atom   31 type  1   force =    -0.00006425    0.00003710    0.00000000
     atom   32 type  1   force =    -0.00000149   -0.00005723   -0.00000000
     atom   33 type  1   force =    -0.00009469    0.00001496   -0.00000000
     atom   34 type  1   force =    -0.00002398   -0.00001384    0.00000000
     atom   35 type  1   force =    -0.00003439   -0.00008948    0.00000000
     atom   36 type  1   force =     0.00004381    0.00003782    0.00000000
     atom   37 type  1   force =     0.00000838   -0.00000484   -0.00000000
     atom   38 type  1   force =     0.00006425    0.00003710   -0.00000000
     atom   39 type  1   force =     0.00000000    0.00000967    0.00000000
     atom   40 type  1   force =     0.00005465    0.00001903    0.00000000
     atom   41 type  1   force =     0.00001586    0.00002671    0.00000000
     atom   42 type  1   force =     0.00003106    0.00000038   -0.00000000
     atom   43 type  1   force =    -0.00002351    0.00001358    0.00000000
     atom   44 type  1   force =    -0.00001084   -0.00005685    0.00000000
     atom   45 type  1   force =    -0.00004882    0.00002990   -0.00000000
     atom   46 type  1   force =     0.00000149   -0.00005723   -0.00000000
     atom   47 type  1   force =    -0.00005465    0.00001903   -0.00000000
     atom   48 type  1   force =     0.00000000   -0.00002715    0.00000000
     atom   49 type  1   force =    -0.00003477   -0.00002008   -0.00000000
     atom   50 type  2   force =     0.00165564    0.00095588   -0.00000000
     atom   51 type  2   force =     0.00000000    0.00027527    0.00000000
     atom   52 type  2   force =     0.00167095   -0.00001463    0.00000000
     atom   53 type  2   force =     0.00014488    0.00093999    0.00000000
     atom   54 type  2   force =     0.00088649   -0.00034452    0.00000000
     atom   55 type  2   force =     0.00082281    0.00145439    0.00000000
     atom   56 type  2   force =     0.00023839   -0.00013764    0.00000000
     atom   57 type  2   force =    -0.00089740    0.00032608   -0.00000000
     atom   58 type  2   force =    -0.00016630   -0.00094021   -0.00000000
     atom   59 type  2   force =    -0.00167095   -0.00001463    0.00000000
     atom   60 type  2   force =     0.00000000   -0.00027626    0.00000000
     atom   61 type  2   force =    -0.00165184   -0.00095369   -0.00000000
     atom   62 type  2   force =    -0.00023925    0.00013813   -0.00000000
     atom   63 type  2   force =    -0.00084814   -0.00143977   -0.00000000
     atom   64 type  2   force =     0.00073959    0.00128529    0.00000000
     atom   65 type  2   force =     0.00013705    0.00007912   -0.00000000
     atom   66 type  2   force =     0.00148289   -0.00000214    0.00000000
     atom   67 type  2   force =    -0.00014488    0.00093999   -0.00000000
     atom   68 type  2   force =     0.00165184   -0.00095369   -0.00000000
     atom   69 type  2   force =     0.00000000    0.00190738    0.00000000
     atom   70 type  2   force =     0.00074161   -0.00059547    0.00000000
     atom   71 type  2   force =     0.00000000    0.00012480    0.00000000
     atom   72 type  2   force =    -0.00027951   -0.00043446    0.00000000
     atom   73 type  2   force =    -0.00051601   -0.00002484   -0.00000000
     atom   74 type  2   force =     0.00010808   -0.00006240    0.00000000
     atom   75 type  2   force =    -0.00088649   -0.00034452   -0.00000000
     atom   76 type  2   force =     0.00023925    0.00013813   -0.00000000
     atom   77 type  2   force =    -0.00074161   -0.00059547    0.00000000
     atom   78 type  2   force =    -0.00073959    0.00128529    0.00000000
     atom   79 type  2   force =     0.00027951   -0.00043446    0.00000000
     atom   80 type  2   force =     0.00000000   -0.00000000    0.00000000
     atom   81 type  2   force =    -0.00023649    0.00045930   -0.00000000
     atom   82 type  2   force =     0.00074330   -0.00128315    0.00000000
     atom   83 type  2   force =    -0.00082281    0.00145439   -0.00000000
     atom   84 type  2   force =     0.00084814   -0.00143977    0.00000000
     atom   85 type  2   force =     0.00089740    0.00032608   -0.00000000
     atom   86 type  2   force =    -0.00013705    0.00007912    0.00000000
     atom   87 type  2   force =     0.00051601   -0.00002484   -0.00000000
     atom   88 type  2   force =     0.00023649    0.00045930    0.00000000
     atom   89 type  2   force =     0.00000000   -0.00015825   -0.00000000
     atom   90 type  2   force =     0.00073110    0.00061413    0.00000000
     atom   91 type  2   force =    -0.00023839   -0.00013764   -0.00000000
     atom   92 type  2   force =    -0.00165564    0.00095588   -0.00000000
     atom   93 type  2   force =     0.00016630   -0.00094021    0.00000000
[...]
     atom   39 type  1   force =     0.00000000    0.00000000    0.00000000
     atom   40 type  1   force =     0.00000000    0.00000000    0.00000000
     atom   41 type  1   force =     0.00000000    0.00000000    0.00000000
     atom   42 type  1   force =     0.00000000    0.00000000    0.00000000
     atom   43 type  1   force =     0.00000000    0.00000000    0.00000000
     atom   44 type  1   force =     0.00000000    0.00000000    0.00000000
     atom   45 type  1   force =     0.00000000    0.00000000    0.00000000
     atom   46 type  1   force =     0.00000000    0.00000000    0.00000000
     atom   47 type  1   force =     0.00000000    0.00000000    0.00000000
     atom   48 type  1   force =     0.00000000    0.00000000    0.00000000
     atom   49 type  1   force =     0.00000000    0.00000000    0.00000000
     atom   50 type  2   force =     0.00000000    0.00000000    0.00000000
     atom   51 type  2   force =     0.00000000    0.00000000    0.00000000
     atom   52 type  2   force =     0.00000000    0.00000000    0.00000000
     atom   53 type  2   force =     0.00000000    0.00000000    0.00000000
     atom   54 type  2   force =     0.00000000    0.00000000    0.00000000
     atom   55 type  2   force =     0.00000000    0.00000000    0.00000000
     atom   56 type  2   force =     0.00000000    0.00000000    0.00000000
     atom   57 type  2   force =     0.00000000    0.00000000    0.00000000
     atom   58 type  2   force =     0.00000000    0.00000000    0.00000000
     atom   59 type  2   force =     0.00000000    0.00000000    0.00000000
     atom   60 type  2   force =     0.00000000    0.00000000    0.00000000
     atom   61 type  2   force =     0.00000000    0.00000000    0.00000000
     atom   62 type  2   force =     0.00000000    0.00000000    0.00000000
     atom   63 type  2   force =     0.00000000    0.00000000    0.00000000
     atom   64 type  2   force =     0.00000000    0.00000000    0.00000000
     atom   65 type  2   force =     0.00000000    0.00000000    0.00000000
     atom   66 type  2   force =     0.00000000    0.00000000    0.00000000
     atom   67 type  2   force =     0.00000000    0.00000000    0.00000000
     atom   68 type  2   force =     0.00000000    0.00000000    0.00000000
     atom   69 type  2   force =     0.00000000    0.00000000    0.00000000
     atom   70 type  2   force =     0.00000000    0.00000000    0.00000000
     atom   71 type  2   force =     0.00000000    0.00000000    0.00000000
     atom   72 type  2   force =     0.00000000    0.00000000    0.00000000
     atom   73 type  2   force =     0.00000000    0.00000000    0.00000000
     atom   74 type  2   force =     0.00000000    0.00000000    0.00000000
     atom   75 type  2   force =     0.00000000    0.00000000    0.00000000
     atom   76 type  2   force =     0.00000000    0.00000000    0.00000000
     atom   77 type  2   force =     0.00000000    0.00000000    0.00000000
     atom   78 type  2   force =     0.00000000    0.00000000    0.00000000
     atom   79 type  2   force =     0.00000000    0.00000000    0.00000000
     atom   80 type  2   force =     0.00000000    0.00000000    0.00000000
     atom   81 type  2   force =     0.00000000    0.00000000    0.00000000
     atom   82 type  2   force =     0.00000000    0.00000000    0.00000000
     atom   83 type  2   force =     0.00000000    0.00000000    0.00000000
     atom   84 type  2   force =     0.00000000    0.00000000    0.00000000
     atom   85 type  2   force =     0.00000000    0.00000000    0.00000000
     atom   86 type  2   force =     0.00000000    0.00000000    0.00000000
     atom   87 type  2   force =     0.00000000    0.00000000    0.00000000
     atom   88 type  2   force =     0.00000000    0.00000000    0.00000000
     atom   89 type  2   force =     0.00000000    0.00000000    0.00000000
     atom   90 type  2   force =     0.00000000    0.00000000    0.00000000
     atom   91 type  2   force =     0.00000000    0.00000000    0.00000000
     atom   92 type  2   force =     0.00000000    0.00000000    0.00000000
     atom   93 type  2   force =     0.00000000    0.00000000    0.00000000
     atom   94 type  2   force =     0.00000000    0.00000000    0.00000000
     atom   95 type  2   force =     0.00000000    0.00000000    0.00000000
     atom   96 type  2   force =     0.00000000    0.00000000    0.00000000
     atom   97 type  2   force =     0.00000000    0.00000000    0.00000000
     atom   98 type  2   force =     0.00000000    0.00000000    0.00000000
     The SCF correction term to forces
     atom    1 type  1   force =     0.00000000    0.00000780   -0.00000000
     atom    2 type  1   force =     0.00000607   -0.00000822   -0.00000000
     atom    3 type  1   force =     0.00000352    0.00000811   -0.00000000
     atom    4 type  1   force =     0.00000332    0.00000191   -0.00000000
     atom    5 type  1   force =     0.00000878   -0.00000101   -0.00000000
     atom    6 type  1   force =    -0.00000408    0.00000937   -0.00000000
     atom    7 type  1   force =     0.00000675   -0.00000390   -0.00000000
     atom    8 type  1   force =     0.00000158    0.00000091   -0.00000000
     atom    9 type  1   force =    -0.00000607   -0.00000822   -0.00000000
     atom   10 type  1   force =     0.00000000    0.00000241    0.00000000
     atom   11 type  1   force =    -0.00000310   -0.00000746    0.00000000
     atom   12 type  1   force =    -0.00000801    0.00000105   -0.00000000
     atom   13 type  1   force =     0.00000209   -0.00000120   -0.00000000
     atom   14 type  1   force =    -0.00001016   -0.00000115   -0.00000000
     atom   15 type  1   force =    -0.00000778    0.00000946   -0.00000000
     atom   16 type  1   force =     0.00000430   -0.00001147   -0.00000000
     atom   17 type  1   force =    -0.00000352    0.00000811   -0.00000000
     atom   18 type  1   force =     0.00000310   -0.00000746   -0.00000000
     atom   19 type  1   force =     0.00000000   -0.00000000   -0.00000000
     atom   20 type  1   force =    -0.00000492    0.00000641    0.00000000
     atom   21 type  1   force =     0.00000526   -0.00000710   -0.00000000
     atom   22 type  1   force =     0.00000589    0.00000481   -0.00000000
     atom   23 type  1   force =    -0.00000474   -0.00000274   -0.00000000
     atom   24 type  1   force =     0.00000711    0.00000269   -0.00000000
     atom   25 type  1   force =    -0.00000332    0.00000191   -0.00000000
     atom   26 type  1   force =     0.00000801    0.00000105   -0.00000000
     atom   27 type  1   force =     0.00000492    0.00000641   -0.00000000
     atom   28 type  1   force =    -0.00000000   -0.00000383   -0.00000000
     atom   29 type  1   force =    -0.00000589    0.00000481   -0.00000000
     atom   30 type  1   force =    -0.00000000   -0.00000843   -0.00000000
     atom   31 type  1   force =    -0.00000730    0.00000421   -0.00000000
     atom   32 type  1   force =     0.00000122   -0.00000750   -0.00000000
     atom   33 type  1   force =    -0.00000878   -0.00000101   -0.00000000
     atom   34 type  1   force =    -0.00000209   -0.00000120   -0.00000000
     atom   35 type  1   force =    -0.00000526   -0.00000710   -0.00000000
     atom   36 type  1   force =     0.00000778    0.00000946   -0.00000000
     atom   37 type  1   force =     0.00000474   -0.00000274   -0.00000000
     atom   38 type  1   force =     0.00000730    0.00000421   -0.00000000
     atom   39 type  1   force =    -0.00000000    0.00000548   -0.00000000
     atom   40 type  1   force =     0.00001209    0.00000201   -0.00000000
     atom   41 type  1   force =     0.00000408    0.00000937   -0.00000000
     atom   42 type  1   force =     0.00001016   -0.00000115   -0.00000000
     atom   43 type  1   force =    -0.00000158    0.00000091   -0.00000000
     atom   44 type  1   force =    -0.00000430   -0.00001147   -0.00000000
     atom   45 type  1   force =    -0.00000711    0.00000269   -0.00000000
     atom   46 type  1   force =    -0.00000122   -0.00000750   -0.00000000
     atom   47 type  1   force =    -0.00001209    0.00000201   -0.00000000
     atom   48 type  1   force =    -0.00000000   -0.00000182   -0.00000000
     atom   49 type  1   force =    -0.00000675   -0.00000390   -0.00000000
     atom   50 type  2   force =     0.00000534    0.00000308   -0.00000000
     atom   51 type  2   force =    -0.00000000   -0.00000073   -0.00000000
     atom   52 type  2   force =     0.00000932   -0.00000551    0.00000000
     atom   53 type  2   force =     0.00000239    0.00000755    0.00000000
     atom   54 type  2   force =     0.00000773   -0.00000171    0.00000000
     atom   55 type  2   force =    -0.00000011    0.00001083    0.00000000
     atom   56 type  2   force =    -0.00000063    0.00000036   -0.00000000
     atom   57 type  2   force =    -0.00001045    0.00000404    0.00000000
     atom   58 type  2   force =    -0.00000173   -0.00001107   -0.00000000
     atom   59 type  2   force =    -0.00000932   -0.00000551    0.00000000
     atom   60 type  2   force =    -0.00000000   -0.00000187    0.00000000
     atom   61 type  2   force =    -0.00000513   -0.00000296   -0.00000000
     atom   62 type  2   force =    -0.00000162    0.00000094   -0.00000000
     atom   63 type  2   force =    -0.00000943   -0.00000532    0.00000000
     atom   64 type  2   force =    -0.00000025    0.00000835    0.00000000
     atom   65 type  2   force =    -0.00000400   -0.00000231   -0.00000000
     atom   66 type  2   force =     0.00000711   -0.00000439    0.00000000
     atom   67 type  2   force =    -0.00000239    0.00000755    0.00000000
     atom   68 type  2   force =     0.00000513   -0.00000296   -0.00000000
     atom   69 type  2   force =    -0.00000000    0.00000593   -0.00000000
     atom   70 type  2   force =     0.00000535   -0.00000584   -0.00000000
     atom   71 type  2   force =    -0.00000000    0.00000290   -0.00000000
     atom   72 type  2   force =    -0.00000302   -0.00000588    0.00000000
     atom   73 type  2   force =    -0.00000660    0.00000033    0.00000000
     atom   74 type  2   force =     0.00000251   -0.00000145    0.00000000
     atom   75 type  2   force =    -0.00000773   -0.00000171   -0.00000000
     atom   76 type  2   force =     0.00000162    0.00000094   -0.00000000
     atom   77 type  2   force =    -0.00000535   -0.00000584    0.00000000
     atom   78 type  2   force =     0.00000025    0.00000835    0.00000000
     atom   79 type  2   force =     0.00000302   -0.00000588    0.00000000
     atom   80 type  2   force =    -0.00000000    0.00000000   -0.00000000
     atom   81 type  2   force =    -0.00000358    0.00000556   -0.00000000
     atom   82 type  2   force =     0.00000736   -0.00000396    0.00000000
     atom   83 type  2   force =     0.00000011    0.00001083    0.00000000
     atom   84 type  2   force =     0.00000943   -0.00000532   -0.00000000
     atom   85 type  2   force =     0.00001045    0.00000404    0.00000000
     atom   86 type  2   force =     0.00000400   -0.00000231   -0.00000000
     atom   87 type  2   force =     0.00000660    0.00000033    0.00000000
     atom   88 type  2   force =     0.00000358    0.00000556   -0.00000000
     atom   89 type  2   force =    -0.00000000    0.00000462    0.00000000
     atom   90 type  2   force =     0.00000872    0.00000703   -0.00000000
     atom   91 type  2   force =     0.00000063    0.00000036    0.00000000
     atom   92 type  2   force =    -0.00000534    0.00000308   -0.00000000
     atom   93 type  2   force =     0.00000173   -0.00001107    0.00000000
     atom   94 type  2   force =    -0.00000711   -0.00000439   -0.00000000
     atom   95 type  2   force =    -0.00000251   -0.00000145    0.00000000
     atom   96 type  2   force =    -0.00000736   -0.00000396   -0.00000000
     atom   97 type  2   force =    -0.00000872    0.00000703    0.00000000
     atom   98 type  2   force =    -0.00000000   -0.00000617   -0.00000000

     Total force =     0.002525     Total SCF correction =     0.000078

     bfgs converged in   2 scf cycles and   1 bfgs steps
     (criteria: energy <  1.0E-04 Ry, force <  1.0E-03 Ry/Bohr)

     End of BFGS Geometry Optimization

     Final energy   =   -1261.1706551833 Ry
Begin final coordinates

ATOMIC_POSITIONS (crystal)
B        0.047620084   0.095240321   0.500000000
B        0.047619286   0.238094334   0.500000000
B        0.047621952   0.380955229   0.500000000
B        0.047618979   0.523809543   0.500000000
B        0.047621969   0.666666935   0.500000000
B        0.047619247   0.809525089   0.500000000
B        0.047620064   0.952379914   0.500000000
B        0.190476762   0.095238447   0.500000000
B        0.190474909   0.238094334   0.500000000
B        0.190476433   0.380953036   0.500000000
B        0.190475644   0.523808622   0.500000000
B        0.190475663   0.666667195   0.500000000
B        0.190476421   0.809523552   0.500000000
B        0.190474912   0.952380716   0.500000000
B        0.333332969   0.095239750   0.500000000
B        0.333332966   0.238093360   0.500000000
B        0.333333096   0.380955229   0.500000000
B        0.333332848   0.523808622   0.500000000
B        0.333333297   0.666666765   0.500000000
B        0.333332823   0.809524354   0.500000000
B        0.333333097   0.952378038   0.500000000
B        0.476192003   0.095238935   0.500000000
B        0.476189970   0.238095061   0.500000000
B        0.476192001   0.380953239   0.500000000
B        0.476190407   0.523809543   0.500000000
B        0.476191346   0.666667195   0.500000000
B        0.476191302   0.809524354   0.500000000
B        0.476190396   0.952381023   0.500000000
B        0.619046741   0.095238935   0.500000000
B        0.619046372   0.238092855   0.500000000
B        0.619046360   0.380953646   0.500000000
B        0.619046765   0.523807950   0.500000000
B        0.619044794   0.666666935   0.500000000
B        0.619046943   0.809523552   0.500000000
B        0.619044765   0.952378038   0.500000000
B        0.761906589   0.095239750   0.500000000
B        0.761904926   0.238095061   0.500000000
B        0.761907119   0.380953646   0.500000000
B        0.761904885   0.523809993   0.500000000
B        0.761906632   0.666667077   0.500000000
B        0.761905614   0.809525089   0.500000000
B        0.761905628   0.952380716   0.500000000
B        0.904761534   0.095238447   0.500000000
B        0.904760269   0.238093360   0.500000000
B        0.904761071   0.380953239   0.500000000
B        0.904761043   0.523807950   0.500000000
B        0.904760247   0.666667077   0.500000000
B        0.904761506   0.809523239   0.500000000
B        0.904759673   0.952379914   0.500000000
N        0.095284854   0.047642353   0.500000000
N        0.095241636   0.190483138   0.500000000
N        0.095273277   0.333332295   0.500000000
N        0.095252717   0.476213908   0.500000000
N        0.095252720   0.619038671   0.500000000
N        0.095273287   0.761940868   0.500000000
N        0.095241601   0.904758336   0.500000000
N        0.238080207   0.047626458   0.500000000
N        0.238080199   0.190453613   0.500000000
N        0.238059155   0.333332295   0.500000000
N        0.238092037   0.476183917   0.500000000
N        0.238047567   0.619023731   0.500000000
N        0.238092055   0.761907985   0.500000000
N        0.238059128   0.904726694   0.500000000
N        0.380984528   0.047651339   0.500000000
N        0.380956782   0.190478320   0.500000000
N        0.380984526   0.333333014   0.500000000
N        0.380961375   0.476213908   0.500000000
N        0.380976318   0.619023731   0.500000000
N        0.380976333   0.761952458   0.500000000
N        0.380961349   0.904747247   0.500000000
N        0.523810791   0.047621472   0.500000000
N        0.523798024   0.190465877   0.500000000
N        0.523798031   0.333332047   0.500000000
N        0.523810788   0.476189169   0.500000000
N        0.523786052   0.619038671   0.500000000
N        0.523816057   0.761907985   0.500000000
N        0.523786022   0.904747247   0.500000000
N        0.666667001   0.047651339   0.500000000
N        0.666667959   0.190465877   0.500000000
N        0.666666751   0.333333289   0.500000000
N        0.666667964   0.476201927   0.500000000
N        0.666667001   0.619015521   0.500000000
N        0.666667734   0.761940868   0.500000000
N        0.666667690   0.904726694   0.500000000
N        0.809546441   0.047626458   0.500000000
N        0.809521725   0.190478320   0.500000000
N        0.809534202   0.333332047   0.500000000
N        0.809534173   0.476201927   0.500000000
N        0.809521733   0.619043259   0.500000000
N        0.809546455   0.761919818   0.500000000
N        0.809516886   0.904758336   0.500000000
N        0.952357661   0.047642353   0.500000000
N        0.952373547   0.190453613   0.500000000
N        0.952348646   0.333333014   0.500000000
N        0.952378539   0.476189169   0.500000000
N        0.952348675   0.619015521   0.500000000
N        0.952373598   0.761919818   0.500000000
N        0.952357659   0.904715113   0.500000000
End final coordinates



     Writing output data file BN.save
 
     init_run     :      4.54s CPU      5.20s WALL (       1 calls)
     electrons    :    210.74s CPU    244.02s WALL (       3 calls)
     update_pot   :      2.64s CPU      3.88s WALL (       2 calls)
     forces       :      6.00s CPU      7.35s WALL (       3 calls)

     Called by init_run:
     wfcinit      :      2.45s CPU      2.76s WALL (       1 calls)
     wfcinit:atom :      0.02s CPU      0.03s WALL (       1 calls)
     wfcinit:wfcr :      2.34s CPU      2.59s WALL (       1 calls)
     potinit      :      0.78s CPU      0.82s WALL (       2 calls)

     Called by electrons:
     c_bands      :    159.16s CPU    170.56s WALL (      28 calls)
     sum_band     :     28.25s CPU     37.48s WALL (      28 calls)
     v_of_rho     :      4.99s CPU      5.42s WALL (      31 calls)
     v_h          :      0.17s CPU      0.18s WALL (      31 calls)
     v_xc         :      4.82s CPU      5.24s WALL (      31 calls)
     mix_rho      :      1.38s CPU      1.44s WALL (      28 calls)

     Called by c_bands:
     init_us_2    :      1.98s CPU      2.04s WALL (      57 calls)
     cegterg      :    151.40s CPU    159.96s WALL (      28 calls)

     Called by sum_band:

     Called by *egterg:
     h_psi        :     92.64s CPU     94.36s WALL (     159 calls)
     g_psi        :      0.54s CPU      0.54s WALL (     130 calls)
     cdiaghg      :     10.94s CPU     13.58s WALL (     155 calls)
     cegterg:over :     18.15s CPU     18.53s WALL (     130 calls)
     cegterg:upda :     19.71s CPU     19.97s WALL (     130 calls)
     cegterg:last :      6.43s CPU      6.51s WALL (      29 calls)
     cdiaghg:chol :      0.51s CPU      0.73s WALL (     155 calls)
     cdiaghg:inve :      0.05s CPU      0.06s WALL (     155 calls)
     cdiaghg:para :      1.40s CPU      1.75s WALL (     310 calls)

     Called by h_psi:
     h_psi:pot    :     91.42s CPU     93.12s WALL (     159 calls)
     h_psi:calbec :     19.12s CPU     19.44s WALL (     159 calls)
     vloc_psi     :     52.19s CPU     53.51s WALL (     159 calls)
     add_vuspsi   :     20.11s CPU     20.17s WALL (     159 calls)

     General routines
     calbec       :     21.63s CPU     21.98s WALL (     171 calls)
     fft          :      7.98s CPU     10.23s WALL (     650 calls)
     fftw         :     52.32s CPU     53.75s WALL (   43808 calls)
 
     Parallel routines
     fft_scatter  :     26.57s CPU     29.57s WALL (   44458 calls)
 
     PWSCF        :  4m 8.56s CPU     5m 4.27s WALL

 
   This run was terminated on:  16:14:57  26Mar2020            

=------------------------------------------------------------------------------=
   JOB DONE.
=------------------------------------------------------------------------------=
