
                                 *****************
                                 * O   R   C   A *
                                 *****************

           --- An Ab Initio, DFT and Semiempirical electronic structure package ---

                  #######################################################
                  #                        -***-                        #
                  #          Department of theory and spectroscopy      #
                  #               Directorship: Frank Neese             #
                  #        Max Planck Institute fuer Kohlenforschung    #
                  #                Kaiser Wilhelm Platz 1               #
                  #                 D-45470 Muelheim/Ruhr               #
                  #                      Germany                        #
                  #                                                     #
                  #                  All rights reserved                #
                  #                        -***-                        #
                  #######################################################


                         Program Version 4.2.1 -  RELEASE  -


 With contributions from (in alphabetic order):
   Daniel Aravena         : Magnetic Suceptibility
   Michael Atanasov       : Ab Initio Ligand Field Theory (pilot matlab implementation)
   Alexander A. Auer      : GIAO ZORA, VPT2
   Ute Becker             : Parallelization
   Giovanni Bistoni       : ED, misc. LED, open-shell LED, HFLD
   Martin Brehm           : Molecular dynamics
   Dmytro Bykov           : SCF Hessian
   Vijay G. Chilkuri      : MRCI spin determinant printing, contributions to CSF-ICE
   Dipayan Datta          : RHF DLPNO-CCSD density
   Achintya Kumar Dutta   : EOM-CC, STEOM-CC
   Dmitry Ganyushin       : Spin-Orbit,Spin-Spin,Magnetic field MRCI
   Miquel Garcia          : C-PCM Hessian, Gaussian charge scheme
   Yang Guo               : DLPNO-NEVPT2, CIM, IAO-localization
   Andreas Hansen         : Spin unrestricted coupled pair/coupled cluster methods
   Benjamin Helmich-Paris : CASSCF linear response (MC-RPA)
   Lee Huntington         : MR-EOM, pCC
   Robert Izsak           : Overlap fitted RIJCOSX, COSX-SCS-MP3, EOM
   Christian Kollmar      : KDIIS, OOCD, Brueckner-CCSD(T), CCSD density
   Simone Kossmann        : Meta GGA functionals, TD-DFT gradient, OOMP2, MP2 Hessian
   Martin Krupicka        : AUTO-CI
   Lucas Lang             : DCDCAS
   Dagmar Lenk            : GEPOL surface, SMD
   Dimitrios Liakos       : Extrapolation schemes; Compound Job, initial MDCI parallelization
   Dimitrios Manganas     : Further ROCIS development; embedding schemes
   Dimitrios Pantazis     : SARC Basis sets
   Taras Petrenko         : DFT Hessian,TD-DFT gradient, ASA, ECA, R-Raman, ABS, FL, XAS/XES, NRVS
   Peter Pinski           : DLPNO-MP2, DLPNO-MP2 Gradient
   Christoph Reimann      : Effective Core Potentials
   Marius Retegan         : Local ZFS, SOC
   Christoph Riplinger    : Optimizer, TS searches, QM/MM, DLPNO-CCSD(T), (RO)-DLPNO pert. Triples
   Tobias Risthaus        : Range-separated hybrids, TD-DFT gradient, RPA, STAB
   Michael Roemelt        : Original ROCIS implementation
   Masaaki Saitow         : Open-shell DLPNO-CCSD energy and density
   Barbara Sandhoefer     : DKH picture change effects
   Avijit Sen             : IP-ROCIS
   Kantharuban Sivalingam : CASSCF convergence, NEVPT2, FIC-MRCI
   Bernardo de Souza      : ESD, SOC TD-DFT
   Georgi Stoychev        : AutoAux, RI-MP2 NMR
   Willem Van den Heuvel  : Paramagnetic NMR
   Boris Wezisla          : Elementary symmetry handling
   Frank Wennmohs         : Technical directorship


 We gratefully acknowledge several colleagues who have allowed us to
 interface, adapt or use parts of their codes:
   Stefan Grimme, W. Hujo, H. Kruse,             : VdW corrections, initial TS optimization,
                  C. Bannwarth                     DFT functionals, gCP, sTDA/sTD-DF
   Ed Valeev, F. Pavosevic, A. Kumar             : LibInt (2-el integral package), F12 methods
   Garnet Chan, S. Sharma, J. Yang, R. Olivares  : DMRG
   Ulf Ekstrom                                   : XCFun DFT Library
   Mihaly Kallay                                 : mrcc  (arbitrary order and MRCC methods)
   Andreas Klamt, Michael Diedenhofen            : otool_cosmo (COSMO solvation model)
   Jiri Pittner, Ondrej Demel                    : Mk-CCSD
   Frank Weinhold                                : gennbo (NPA and NBO analysis)
   Christopher J. Cramer and Donald G. Truhlar   : smd solvation model
   Lars Goerigk                                  : TD-DFT with DH, B97 family of functionals
   V. Asgeirsson, H. Jonsson                     : NEB implementation
   FAccTs GmbH                                   : IRC, NEB, NEB-TS, Multilevel, MM, QM/MM, CI optimization
   S Lehtola, MJT Oliveira, MAL Marques          : LibXC Library


 Your calculation uses the libint2 library for the computation of 2-el integrals
 For citations please refer to: http://libint.valeyev.net

 Your ORCA version has been built with support for libXC version: 4.2.3
 For citations please refer to: https://tddft.org/programs/libxc/

 This ORCA versions uses:
   CBLAS   interface :  Fast vector & matrix operations
   LAPACKE interface :  Fast linear algebra routines
   SCALAPACK package :  Parallel linear algebra routines




***************************************
The coordinates will be read from file: nv.xyz
***************************************


----- Orbital basis set information -----
Your calculation utilizes the basis: EPR-II
   V. Barone, in Recent Advances in Density Functional Methods, Part 1 (ed. D. P. Chong), World Scientific, Singapore, 1995, p. 287.

----- AuxJ basis set information -----
Your calculation utilizes the AutoAux generation procedure.
  G. L. Stoychev, A. A. Auer, F. Neese, J. Chem. Theory Comput. 13, 554 (2017)

----- AuxC basis set information -----
Your calculation utilizes the AutoAux generation procedure.
  G. L. Stoychev, A. A. Auer, F. Neese, J. Chem. Theory Comput. 13, 554 (2017)

----- AuxJK basis set information -----
Your calculation utilizes the AutoAux generation procedure.
  G. L. Stoychev, A. A. Auer, F. Neese, J. Chem. Theory Comput. 13, 554 (2017)

================================================================================
                                        WARNINGS
                       Please study these warnings very carefully!
================================================================================


WARNING: your system is open-shell and RHF/RKS was chosen
  ===> : WILL SWITCH to UHF/UKS


INFO   : the flag for use of LIBINT has been found!

================================================================================
                                       INPUT FILE
================================================================================
NAME = zfs.in
|  1> # Use EPR-II is a special basis set for epr, autoaux creates a large auxiliary basis
|  2> !PBE EPR-II AUTOAUX RIJCOSX
|  3> 
|  4> # use original (unoptimized) cluster xyz
|  5> *xyzfile -1 3 nv.xyz
|  6> 
|  7> # Parallelization
|  8> %PAL NPROCS 72 END
|  9> 
| 10> # ZFS calculation
| 11> %EPRNMR DTENSOR SSANDSO
| 12>     DSS     UNO
| 13>     DSOC    CP
| 14> END
| 15> 
| 16>                          ****END OF INPUT****
================================================================================

                       ****************************
                       * Single Point Calculation *
                       ****************************

---------------------------------
CARTESIAN COORDINATES (ANGSTROEM)
---------------------------------
  C      0.542355    1.440918   -2.249811
  C      1.436180    0.237177   -4.258023
  C     -1.841847    2.244465   -2.199697
  C     -1.022769   -2.717257   -2.199804
  C      2.864666    0.472945   -2.199700
  C     -2.343595    0.874376   -0.144983
  C      2.338486   -0.887948   -0.144986
  C     -1.938228   -1.581209   -0.145035
  C      1.929026    1.592431   -0.144933
  C     -0.400254    2.469167   -0.144931
  C      0.414572   -2.466797   -0.145037
  C      1.402889    0.231579    0.395617
  C     -0.500888   -1.330745    0.395566
  C     -0.902011    1.099138    0.395618
  C     -1.439679   -0.237579   -3.737621
  C      0.514058    1.365744   -3.737569
  C      0.925708   -1.127905   -3.737623
  C     -2.342559    0.874781   -1.693673
  C      2.337972   -0.886960   -1.693676
  C     -1.937129   -1.581194   -1.693726
  C      1.928847    1.591396   -1.693623
  C     -0.400804    2.468272   -1.693621
  C      0.413752   -2.466060   -1.693727
  C     -1.518977   -0.250702   -2.249865
  C      0.976675   -1.190059   -2.249867
  C     -0.923357    1.125301   -4.258021
  C     -0.512725   -1.362181   -4.258075
  N      0.000000    0.000000    0.000000
  H      2.433768    0.401850   -3.907906
  H      1.429115    0.236034   -5.328003
  H     -1.852975    2.258060   -3.269544
  H     -2.479560    3.021542   -1.833101
  H     -1.376038   -3.655812   -1.826663
  H     -1.031415   -2.740225   -3.269519
  H      2.881995    0.475829   -3.269548
  H      3.856494    0.636667   -1.833106
  H     -2.710080   -0.067056    0.207581
  H     -2.973415    1.666280    0.203028
  H      3.334069   -0.716977    0.207839
  H      1.984285   -1.835844    0.202756
  H     -2.287951   -2.528910    0.207753
  H     -2.582027   -0.800527    0.202744
  H      1.296969    2.380519    0.207668
  H      2.929748    1.741905    0.203076
  H     -1.046123    3.245873    0.207895
  H      0.597737    2.636358    0.202848
  H      1.413107   -2.313477    0.207562
  H      0.043662   -3.408199    0.202936
  H      1.415207    0.233589    1.465539
  H     -0.505297   -1.342461    1.465488
  H     -0.909944    1.108770    1.465541
  H     -2.431176   -0.401246   -4.105093
  H      0.868063    2.306256   -4.105005
  H      1.563208   -1.904723   -4.105096
  H     -3.342724    0.717172   -2.039696
  H      2.985984   -1.664939   -2.039701
  H     -2.934886   -1.753384   -2.039749
  H      2.292432    2.536384   -2.039611
  H     -0.051050    3.418465   -2.039609
  H      1.050339   -3.253414   -2.039752
  H     -0.918946    1.119961   -5.328007
  H     -1.564732    1.906841   -3.907684
  H     -0.868904   -2.308469   -3.907994
  H     -0.510191   -1.355447   -5.328055

----------------------------
CARTESIAN COORDINATES (A.U.)
----------------------------
  NO LB      ZA    FRAG     MASS         X           Y           Z
   0 C     6.0000    0    12.011    1.024902    2.722941   -4.251526
   1 C     6.0000    0    12.011    2.713987    0.448199   -8.046497
   2 C     6.0000    0    12.011   -3.480586    4.241425   -4.156825
   3 C     6.0000    0    12.011   -1.932753   -5.134871   -4.157026
   4 C     6.0000    0    12.011    5.413435    0.893736   -4.156831
   5 C     6.0000    0    12.011   -4.428752    1.652331   -0.273977
   6 C     6.0000    0    12.011    4.419097   -1.677979   -0.273984
   7 C     6.0000    0    12.011   -3.662721   -2.988051   -0.274077
   8 C     6.0000    0    12.011    3.645331    3.009259   -0.273883
   9 C     6.0000    0    12.011   -0.756370    4.666049   -0.273880
  10 C     6.0000    0    12.011    0.783427   -4.661571   -0.274081
  11 C     6.0000    0    12.011    2.651077    0.437621    0.747607
  12 C     6.0000    0    12.011   -0.946540   -2.514743    0.747512
  13 C     6.0000    0    12.011   -1.704554    2.077070    0.747611
  14 C     6.0000    0    12.011   -2.720599   -0.448959   -7.063080
  15 C     6.0000    0    12.011    0.971429    2.580883   -7.062982
  16 C     6.0000    0    12.011    1.749334   -2.131431   -7.063084
  17 C     6.0000    0    12.011   -4.426796    1.653097   -3.200578
  18 C     6.0000    0    12.011    4.418127   -1.676111   -3.200585
  19 C     6.0000    0    12.011   -3.660643   -2.988023   -3.200678
  20 C     6.0000    0    12.011    3.644992    3.007304   -3.200484
  21 C     6.0000    0    12.011   -0.757410    4.664357   -3.200481
  22 C     6.0000    0    12.011    0.781878   -4.660178   -3.200681
  23 C     6.0000    0    12.011   -2.870451   -0.473758   -4.251629
  24 C     6.0000    0    12.011    1.845647   -2.248886   -4.251633
  25 C     6.0000    0    12.011   -1.744891    2.126511   -8.046494
  26 C     6.0000    0    12.011   -0.968910   -2.574149   -8.046595
  27 N     7.0000    0    14.007    0.000000    0.000000    0.000000
  28 H     1.0000    0     1.008    4.599155    0.759386   -7.384872
  29 H     1.0000    0     1.008    2.700637    0.446040  -10.068467
  30 H     1.0000    0     1.008   -3.501614    4.267116   -6.178543
  31 H     1.0000    0     1.008   -4.685689    5.709888   -3.464060
  32 H     1.0000    0     1.008   -2.600335   -6.908483   -3.451893
  33 H     1.0000    0     1.008   -1.949093   -5.178275   -6.178495
  34 H     1.0000    0     1.008    5.446181    0.899186   -6.178550
  35 H     1.0000    0     1.008    7.287718    1.203125   -3.464069
  36 H     1.0000    0     1.008   -5.121309   -0.126717    0.392271
  37 H     1.0000    0     1.008   -5.618940    3.148813    0.383668
  38 H     1.0000    0     1.008    6.300478   -1.354890    0.392758
  39 H     1.0000    0     1.008    3.749755   -3.469243    0.383154
  40 H     1.0000    0     1.008   -4.323601   -4.778948    0.392597
  41 H     1.0000    0     1.008   -4.879324   -1.512778    0.383131
  42 H     1.0000    0     1.008    2.450915    4.498529    0.392436
  43 H     1.0000    0     1.008    5.536421    3.291724    0.383759
  44 H     1.0000    0     1.008   -1.976886    6.133810    0.392864
  45 H     1.0000    0     1.008    1.129560    4.981994    0.383326
  46 H     1.0000    0     1.008    2.670384   -4.371839    0.392235
  47 H     1.0000    0     1.008    0.082510   -6.440563    0.383494
  48 H     1.0000    0     1.008    2.674353    0.441419    2.769468
  49 H     1.0000    0     1.008   -0.954872   -2.536884    2.769372
  50 H     1.0000    0     1.008   -1.719545    2.095272    2.769471
  51 H     1.0000    0     1.008   -4.594258   -0.758245   -7.757501
  52 H     1.0000    0     1.008    1.640401    4.358191   -7.757336
  53 H     1.0000    0     1.008    2.954036   -3.599405   -7.757507
  54 H     1.0000    0     1.008   -6.316833    1.355259   -3.854467
  55 H     1.0000    0     1.008    5.642691   -3.146278   -3.854476
  56 H     1.0000    0     1.008   -5.546132   -3.313416   -3.854568
  57 H     1.0000    0     1.008    4.332069    4.793072   -3.854305
  58 H     1.0000    0     1.008   -0.096470    6.459963   -3.854302
  59 H     1.0000    0     1.008    1.984854   -6.148061   -3.854573
  60 H     1.0000    0     1.008   -1.736556    2.116419  -10.068475
  61 H     1.0000    0     1.008   -2.956914    3.603407   -7.384452
  62 H     1.0000    0     1.008   -1.641991   -4.362374   -7.385038
  63 H     1.0000    0     1.008   -0.964122   -2.561423  -10.068564

--------------------------------
INTERNAL COORDINATES (ANGSTROEM)
--------------------------------
 C      0   0   0     0.000000000000     0.00000000     0.00000000
 C      1   0   0     2.506159188685     0.00000000     0.00000000
 C      1   2   0     2.516468737653   120.47980033     0.00000000
 C      2   1   3     4.360203420833    75.28951497   283.77948099
 C      1   2   3     2.516468891130    60.13666439   174.71907256
 C      3   1   2     2.520068779361    91.79194712   121.28833102
 C      5   1   2     2.520068762861    91.79201995   236.05607765
 C      6   3   1     2.488818367989   120.26272267   304.19020213
 C      7   5   1     2.513948947995    60.08027952   306.41229826
 C      9   7   5     2.488817353001   120.00002881   109.82545097
 C      7   5   1     2.488816777173   120.26270158    55.80983229
 C      7   5   1     1.555934702718    91.16206223   325.68709313
 C      8   6   3     1.555934052171    89.52038817    91.06561730
 C      6   3   1     1.555934062031    91.16212213    34.31292440
 C      3   1   2     2.947455098161    65.88562639    32.41919376
 C      1   2   3     1.489925410426    35.15414078   323.08151357
 C      2   1   3     1.547529030176    92.09616880   273.73521377
 C      3   1   2     1.543634497482    91.74891423    85.78589529
 C      5   1   2     1.543634475504    91.74900366   271.55851523
 C      4   2   1     1.543634425875    89.43441788    30.89183769
 C      1   2   3     1.501448810958    90.89532349   191.81515947
 C      1   2   3     1.501449344842   148.15946932   329.09681934
 C      4   2   1     1.543633746588    61.29331666   278.87882689
 C     15   3   1     1.489925437868    58.60967738    79.25168913
 C     17   2   1     1.489925476659   111.18022713   326.95804090
 C     16   1   2     1.547528290533   111.18021288   121.75553486
 C     17   2   1     1.547528292760   109.09004223    89.92306831
 N     12   7   5     1.475886138502   111.44049750    93.52608410
 H      2   1   3     1.069990717035    89.79352600   164.26253074
 H      2   1   3     1.070004294787   143.07770561    40.86734308
 H      3   1   2     1.069991509774    89.65616665   336.17389647
 H      3   1   2     1.070008907926   143.45442867   213.40182393
 H      4   2   1     1.070008630086   160.93593850   213.27452144
 H      4   2   1     1.069996784558    63.07524131   143.53512798
 H     29   2   1     0.783506147860   144.53757488    32.14134805
 H      5   1   2     1.070008457789   143.45441161   143.94258787
 H      6   3   1     1.070002932018   144.60622172   267.56155989
 H      6   3   1     1.069998801242    88.85452193   143.28877490
 H      7   5   1     1.070001689790    89.32902231   216.43024002
 H      7   5   1     1.069995564181   144.34073003    91.60649887
 H      8   6   3     1.070002207504   145.14813581   215.49452430
 H     37   6   3     0.744581472635   143.67474244    62.06104371
 H      9   7   5     1.070002897772   145.37732651   145.27378860
 H      9   7   5     1.069998336664    89.16959388   270.84373776
 H     10   9   7     1.070002152944   145.14812964   144.76011291
 H     43   9   7     0.744581166988   143.67473631   300.54055366
 H     40   7   5     0.744581002724   145.51897269   298.58473537
 H     11   7   5     1.069998827491   145.69948101   144.51454587
 H     12   7   5     1.069995472815   109.98972404   211.05044890
 H     13   8   6     1.069995477084   109.98975806    90.79100384
 H     14   6   3     1.069995466061   109.98975811   148.94952881
 H     15   3   1     1.069995020483   100.46116416   182.87308406
 H     16   1   2     1.069995530728   106.99377718   240.87773460
 H     17   2   1     1.069995471124   109.17096222   209.14698707
 H     18   3   1     1.070001082443   109.14081201   209.46733766
 H     19   5   1     1.070001544204   109.14088147   150.53266270
 H     20   4   2     1.070001076666   109.14085339   120.92648833
 H     21   1   2     1.070001584427   106.41034509    92.35939571
 H     22   1   2     1.070001595994   106.41041643   291.94871452
 H     23   4   2     1.070001549073   109.14085327   258.30749264
 H     26  16   1     1.070008557446   109.46621822   177.47400824
 H     31   3   1     0.783365299907   143.60830340    31.99437338
 H     34   4   2     0.787701494313   142.83583391   341.07939138
 H     27  17   2     1.070004297038   109.46009771    59.54970980

---------------------------
INTERNAL COORDINATES (A.U.)
---------------------------
 C      0   0   0     0.000000000000     0.00000000     0.00000000
 C      1   0   0     4.735954514624     0.00000000     0.00000000
 C      1   2   0     4.755436738739   120.47980033     0.00000000
 C      2   1   3     8.239590353561    75.28951497   283.77948099
 C      1   2   3     4.755437028769    60.13666439   174.71907256
 C      3   1   2     4.762239831637    91.79194712   121.28833102
 C      5   1   2     4.762239800457    91.79201995   236.05607765
 C      6   3   1     4.703185112571   120.26272267   304.19020213
 C      7   5   1     4.750675026370    60.08027952   306.41229826
 C      9   7   5     4.703183194523   120.00002881   109.82545097
 C      7   5   1     4.703182106365   120.26270158    55.80983229
 C      7   5   1     2.940290470401    91.16206223   325.68709313
 C      8   6   3     2.940289241046    89.52038817    91.06561730
 C      6   3   1     2.940289259678    91.16212213    34.31292440
 C      3   1   2     5.569882927555    65.88562639    32.41919376
 C      1   2   3     2.815550985675    35.15414078   323.08151357
 C      2   1   3     2.924406051326    92.09616880   273.73521377
 C      3   1   2     2.917046451115    91.74891423    85.78589529
 C      5   1   2     2.917046409582    91.74900366   271.55851523
 C      4   2   1     2.917046315797    89.43441788    30.89183769
 C      1   2   3     2.837327056812    90.89532349   191.81515947
 C      1   2   3     2.837328065707   148.15946932   329.09681934
 C      4   2   1     2.917045032131    61.29331666   278.87882689
 C     15   3   1     2.815551037534    58.60967738    79.25168913
 C     17   2   1     2.815551110838   111.18022713   326.95804090
 C     16   1   2     2.924404653603   111.18021288   121.75553486
 C     17   2   1     2.924404657811   109.09004223    89.92306831
 N     12   7   5     2.789020606619   111.44049750    93.52608410
 H      2   1   3     2.021989421035    89.79352600   164.26253074
 H      2   1   3     2.022015079266   143.07770561    40.86734308
 H      3   1   2     2.021990919094    89.65616665   336.17389647
 H      3   1   2     2.022023796836   143.45442867   213.40182393
 H      4   2   1     2.022023271795   160.93593850   213.27452144
 H      4   2   1     2.022000886992    63.07524131   143.53512798
 H     29   2   1     1.480612043699   144.53757488    32.14134805
 H      5   1   2     2.022022946201   143.45441161   143.94258787
 H      6   3   1     2.022012504007   144.60622172   267.56155989
 H      6   3   1     2.022004697972    88.85452193   143.28877490
 H      7   5   1     2.022010156537    89.32902231   216.43024002
 H      7   5   1     2.021998580813   144.34073003    91.60649887
 H      8   6   3     2.022011134874   145.14813581   215.49452430
 H     37   6   3     1.407055067672   143.67474244    62.06104371
 H      9   7   5     2.022012439291   145.37732651   145.27378860
 H      9   7   5     2.022003820046    89.16959388   270.84373776
 H     10   9   7     2.022011031770   145.14812964   144.76011291
 H     43   9   7     1.407054490082   143.67473631   300.54055366
 H     40   7   5     1.407054179669   145.51897269   298.58473537
 H     11   7   5     2.022004747574   145.69948101   144.51454587
 H     12   7   5     2.021998408155   109.98972404   211.05044890
 H     13   8   6     2.021998416223   109.98975806    90.79100384
 H     14   6   3     2.021998395392   109.98975811   148.94952881
 H     15   3   1     2.021997553372   100.46116416   182.87308406
 H     16   1   2     2.021998517596   106.99377718   240.87773460
 H     17   2   1     2.021998404960   109.17096222   209.14698707
 H     18   3   1     2.022009008817   109.14081201   209.46733766
 H     19   5   1     2.022009881419   109.14088147   150.53266270
 H     20   4   2     2.022008997899   109.14085339   120.92648833
 H     21   1   2     2.022009957428   106.41034509    92.35939571
 H     22   1   2     2.022009979287   106.41041643   291.94871452
 H     23   4   2     2.022009890619   109.14085327   258.30749264
 H     26  16   1     2.022023134525   109.46621822   177.47400824
 H     31   3   1     1.480345879641   143.60830340    31.99437338
 H     34   4   2     1.488540099532   142.83583391   341.07939138
 H     27  17   2     2.022015083521   109.46009771    59.54970980

---------------------
BASIS SET INFORMATION
---------------------
There are 3 groups of distinct atoms

 Group   1 Type C   : 10s5p1d contracted to 6s2p1d pattern {511111/41/1}
 Group   2 Type N   : 10s5p1d contracted to 6s2p1d pattern {511111/41/1}
 Group   3 Type H   : 6s1p contracted to 4s1p pattern {3111/1}

Atom   0C    basis set group =>   1
Atom   1C    basis set group =>   1
Atom   2C    basis set group =>   1
Atom   3C    basis set group =>   1
Atom   4C    basis set group =>   1
Atom   5C    basis set group =>   1
Atom   6C    basis set group =>   1
Atom   7C    basis set group =>   1
Atom   8C    basis set group =>   1
Atom   9C    basis set group =>   1
Atom  10C    basis set group =>   1
Atom  11C    basis set group =>   1
Atom  12C    basis set group =>   1
Atom  13C    basis set group =>   1
Atom  14C    basis set group =>   1
Atom  15C    basis set group =>   1
Atom  16C    basis set group =>   1
Atom  17C    basis set group =>   1
Atom  18C    basis set group =>   1
Atom  19C    basis set group =>   1
Atom  20C    basis set group =>   1
Atom  21C    basis set group =>   1
Atom  22C    basis set group =>   1
Atom  23C    basis set group =>   1
Atom  24C    basis set group =>   1
Atom  25C    basis set group =>   1
Atom  26C    basis set group =>   1
Atom  27N    basis set group =>   2
Atom  28H    basis set group =>   3
Atom  29H    basis set group =>   3
Atom  30H    basis set group =>   3
Atom  31H    basis set group =>   3
Atom  32H    basis set group =>   3
Atom  33H    basis set group =>   3
Atom  34H    basis set group =>   3
Atom  35H    basis set group =>   3
Atom  36H    basis set group =>   3
Atom  37H    basis set group =>   3
Atom  38H    basis set group =>   3
Atom  39H    basis set group =>   3
Atom  40H    basis set group =>   3
Atom  41H    basis set group =>   3
Atom  42H    basis set group =>   3
Atom  43H    basis set group =>   3
Atom  44H    basis set group =>   3
Atom  45H    basis set group =>   3
Atom  46H    basis set group =>   3
Atom  47H    basis set group =>   3
Atom  48H    basis set group =>   3
Atom  49H    basis set group =>   3
Atom  50H    basis set group =>   3
Atom  51H    basis set group =>   3
Atom  52H    basis set group =>   3
Atom  53H    basis set group =>   3
Atom  54H    basis set group =>   3
Atom  55H    basis set group =>   3
Atom  56H    basis set group =>   3
Atom  57H    basis set group =>   3
Atom  58H    basis set group =>   3
Atom  59H    basis set group =>   3
Atom  60H    basis set group =>   3
Atom  61H    basis set group =>   3
Atom  62H    basis set group =>   3
Atom  63H    basis set group =>   3
---------------------------------
AUXILIARY/J BASIS SET INFORMATION
---------------------------------
There are 3 groups of distinct atoms

 Group   1 Type C   : 17s13p12d2f contracted to 17s13p12d2f pattern {11111111111111111/1111111111111/111111111111/11}
 Group   2 Type N   : 17s13p12d2f contracted to 17s13p12d2f pattern {11111111111111111/1111111111111/111111111111/11}
 Group   3 Type H   : 15s6p1d contracted to 15s6p1d pattern {111111111111111/111111/1}

Atom   0C    basis set group =>   1
Atom   1C    basis set group =>   1
Atom   2C    basis set group =>   1
Atom   3C    basis set group =>   1
Atom   4C    basis set group =>   1
Atom   5C    basis set group =>   1
Atom   6C    basis set group =>   1
Atom   7C    basis set group =>   1
Atom   8C    basis set group =>   1
Atom   9C    basis set group =>   1
Atom  10C    basis set group =>   1
Atom  11C    basis set group =>   1
Atom  12C    basis set group =>   1
Atom  13C    basis set group =>   1
Atom  14C    basis set group =>   1
Atom  15C    basis set group =>   1
Atom  16C    basis set group =>   1
Atom  17C    basis set group =>   1
Atom  18C    basis set group =>   1
Atom  19C    basis set group =>   1
Atom  20C    basis set group =>   1
Atom  21C    basis set group =>   1
Atom  22C    basis set group =>   1
Atom  23C    basis set group =>   1
Atom  24C    basis set group =>   1
Atom  25C    basis set group =>   1
Atom  26C    basis set group =>   1
Atom  27N    basis set group =>   2
Atom  28H    basis set group =>   3
Atom  29H    basis set group =>   3
Atom  30H    basis set group =>   3
Atom  31H    basis set group =>   3
Atom  32H    basis set group =>   3
Atom  33H    basis set group =>   3
Atom  34H    basis set group =>   3
Atom  35H    basis set group =>   3
Atom  36H    basis set group =>   3
Atom  37H    basis set group =>   3
Atom  38H    basis set group =>   3
Atom  39H    basis set group =>   3
Atom  40H    basis set group =>   3
Atom  41H    basis set group =>   3
Atom  42H    basis set group =>   3
Atom  43H    basis set group =>   3
Atom  44H    basis set group =>   3
Atom  45H    basis set group =>   3
Atom  46H    basis set group =>   3
Atom  47H    basis set group =>   3
Atom  48H    basis set group =>   3
Atom  49H    basis set group =>   3
Atom  50H    basis set group =>   3
Atom  51H    basis set group =>   3
Atom  52H    basis set group =>   3
Atom  53H    basis set group =>   3
Atom  54H    basis set group =>   3
Atom  55H    basis set group =>   3
Atom  56H    basis set group =>   3
Atom  57H    basis set group =>   3
Atom  58H    basis set group =>   3
Atom  59H    basis set group =>   3
Atom  60H    basis set group =>   3
Atom  61H    basis set group =>   3
Atom  62H    basis set group =>   3
Atom  63H    basis set group =>   3
---------------------------------
AUXILIARY/C BASIS SET INFORMATION
---------------------------------
There are 3 groups of distinct atoms

 Group   1 Type C   : 17s13p12d2f contracted to 17s13p12d2f pattern {11111111111111111/1111111111111/111111111111/11}
 Group   2 Type N   : 17s13p12d2f contracted to 17s13p12d2f pattern {11111111111111111/1111111111111/111111111111/11}
 Group   3 Type H   : 15s6p1d contracted to 15s6p1d pattern {111111111111111/111111/1}

Atom   0C    basis set group =>   1
Atom   1C    basis set group =>   1
Atom   2C    basis set group =>   1
Atom   3C    basis set group =>   1
Atom   4C    basis set group =>   1
Atom   5C    basis set group =>   1
Atom   6C    basis set group =>   1
Atom   7C    basis set group =>   1
Atom   8C    basis set group =>   1
Atom   9C    basis set group =>   1
Atom  10C    basis set group =>   1
Atom  11C    basis set group =>   1
Atom  12C    basis set group =>   1
Atom  13C    basis set group =>   1
Atom  14C    basis set group =>   1
Atom  15C    basis set group =>   1
Atom  16C    basis set group =>   1
Atom  17C    basis set group =>   1
Atom  18C    basis set group =>   1
Atom  19C    basis set group =>   1
Atom  20C    basis set group =>   1
Atom  21C    basis set group =>   1
Atom  22C    basis set group =>   1
Atom  23C    basis set group =>   1
Atom  24C    basis set group =>   1
Atom  25C    basis set group =>   1
Atom  26C    basis set group =>   1
Atom  27N    basis set group =>   2
Atom  28H    basis set group =>   3
Atom  29H    basis set group =>   3
Atom  30H    basis set group =>   3
Atom  31H    basis set group =>   3
Atom  32H    basis set group =>   3
Atom  33H    basis set group =>   3
Atom  34H    basis set group =>   3
Atom  35H    basis set group =>   3
Atom  36H    basis set group =>   3
Atom  37H    basis set group =>   3
Atom  38H    basis set group =>   3
Atom  39H    basis set group =>   3
Atom  40H    basis set group =>   3
Atom  41H    basis set group =>   3
Atom  42H    basis set group =>   3
Atom  43H    basis set group =>   3
Atom  44H    basis set group =>   3
Atom  45H    basis set group =>   3
Atom  46H    basis set group =>   3
Atom  47H    basis set group =>   3
Atom  48H    basis set group =>   3
Atom  49H    basis set group =>   3
Atom  50H    basis set group =>   3
Atom  51H    basis set group =>   3
Atom  52H    basis set group =>   3
Atom  53H    basis set group =>   3
Atom  54H    basis set group =>   3
Atom  55H    basis set group =>   3
Atom  56H    basis set group =>   3
Atom  57H    basis set group =>   3
Atom  58H    basis set group =>   3
Atom  59H    basis set group =>   3
Atom  60H    basis set group =>   3
Atom  61H    basis set group =>   3
Atom  62H    basis set group =>   3
Atom  63H    basis set group =>   3
----------------------------------
AUXILIARY/JK BASIS SET INFORMATION
----------------------------------
There are 3 groups of distinct atoms

 Group   1 Type C   : 17s13p12d2f contracted to 17s13p12d2f pattern {11111111111111111/1111111111111/111111111111/11}
 Group   2 Type N   : 17s13p12d2f contracted to 17s13p12d2f pattern {11111111111111111/1111111111111/111111111111/11}
 Group   3 Type H   : 15s6p1d contracted to 15s6p1d pattern {111111111111111/111111/1}

Atom   0C    basis set group =>   1
Atom   1C    basis set group =>   1
Atom   2C    basis set group =>   1
Atom   3C    basis set group =>   1
Atom   4C    basis set group =>   1
Atom   5C    basis set group =>   1
Atom   6C    basis set group =>   1
Atom   7C    basis set group =>   1
Atom   8C    basis set group =>   1
Atom   9C    basis set group =>   1
Atom  10C    basis set group =>   1
Atom  11C    basis set group =>   1
Atom  12C    basis set group =>   1
Atom  13C    basis set group =>   1
Atom  14C    basis set group =>   1
Atom  15C    basis set group =>   1
Atom  16C    basis set group =>   1
Atom  17C    basis set group =>   1
Atom  18C    basis set group =>   1
Atom  19C    basis set group =>   1
Atom  20C    basis set group =>   1
Atom  21C    basis set group =>   1
Atom  22C    basis set group =>   1
Atom  23C    basis set group =>   1
Atom  24C    basis set group =>   1
Atom  25C    basis set group =>   1
Atom  26C    basis set group =>   1
Atom  27N    basis set group =>   2
Atom  28H    basis set group =>   3
Atom  29H    basis set group =>   3
Atom  30H    basis set group =>   3
Atom  31H    basis set group =>   3
Atom  32H    basis set group =>   3
Atom  33H    basis set group =>   3
Atom  34H    basis set group =>   3
Atom  35H    basis set group =>   3
Atom  36H    basis set group =>   3
Atom  37H    basis set group =>   3
Atom  38H    basis set group =>   3
Atom  39H    basis set group =>   3
Atom  40H    basis set group =>   3
Atom  41H    basis set group =>   3
Atom  42H    basis set group =>   3
Atom  43H    basis set group =>   3
Atom  44H    basis set group =>   3
Atom  45H    basis set group =>   3
Atom  46H    basis set group =>   3
Atom  47H    basis set group =>   3
Atom  48H    basis set group =>   3
Atom  49H    basis set group =>   3
Atom  50H    basis set group =>   3
Atom  51H    basis set group =>   3
Atom  52H    basis set group =>   3
Atom  53H    basis set group =>   3
Atom  54H    basis set group =>   3
Atom  55H    basis set group =>   3
Atom  56H    basis set group =>   3
Atom  57H    basis set group =>   3
Atom  58H    basis set group =>   3
Atom  59H    basis set group =>   3
Atom  60H    basis set group =>   3
Atom  61H    basis set group =>   3
Atom  62H    basis set group =>   3
Atom  63H    basis set group =>   3


           ************************************************************
           *        Program running with 72 parallel MPI-processes    *
           *              working on a shared directory               *
           ************************************************************
------------------------------------------------------------------------------
                           ORCA GTO INTEGRAL CALCULATION
                           -- RI-GTO INTEGRALS CHOSEN --
------------------------------------------------------------------------------

                         BASIS SET STATISTICS AND STARTUP INFO

Gaussian basis set:
 # of primitive gaussian shells          ...  700
 # of primitive gaussian functions       ... 1164
 # of contracted shells                  ...  432
 # of contracted basis functions         ...  728
 Highest angular momentum                ...    2
 Maximum contraction depth               ...    5
Auxiliary gaussian basis set:
 # of primitive gaussian shells          ... 2024
 # of primitive gaussian functions       ... 5008
 # of contracted shells                  ... 2024
 # of contracted aux-basis functions     ... 5008
 Highest angular momentum                ...    3
 Maximum contraction depth               ...    1
Ratio of auxiliary to basis functions    ...  6.88
Integral package used                  ... LIBINT
 One Electron integrals                  ... done
 Ordering auxiliary basis shells         ... done
 Integral threshhold             Thresh  ...  1.000e-10
 Primitive cut-off               TCut    ...  1.000e-11
 Pre-screening matrix                    ... done
 Shell pair data                         ... 
 Ordering of the shell pairs             ... done (   0.016 sec) 66485 of 93528 pairs
 Determination of significant pairs      ... done (   0.000 sec)
 Creation of shell pair data             ... done (   0.011 sec)
 Storage of shell pair data              ... done (   0.049 sec)
 Shell pair data done in (   0.077 sec)
 Computing two index integrals           ... done
 Cholesky decomposition of the V-matrix  ... done


Timings:
 Total evaluation time                   ...   4.599 sec (  0.077 min)
 One electron matrix time                ...   0.740 sec (  0.012 min) = 16.1%
 Schwartz matrix evaluation time         ...   0.413 sec (  0.007 min) =  9.0%
 Two index repulsion integral time       ...   0.989 sec (  0.016 min) = 21.5%
 Cholesky decomposition of V             ...   2.342 sec (  0.039 min) = 50.9%
 Three index repulsion integral time     ...   0.001 sec (  0.000 min) =  0.0%



           ************************************************************
           *        Program running with 72 parallel MPI-processes    *
           *              working on a shared directory               *
           ************************************************************
-------------------------------------------------------------------------------
                                 ORCA SCF
-------------------------------------------------------------------------------

------------
SCF SETTINGS
------------
Hamiltonian:
 Density Functional     Method          .... DFT(GTOs)
 Exchange Functional    Exchange        .... PBE
   PBE kappa parameter   XKappa         ....  0.804000
   PBE mue parameter    XMuePBE         ....  0.219520
 Correlation Functional Correlation     .... PBE
   PBE beta parameter  CBetaPBE         ....  0.066725
 LDA part of GGA corr.  LDAOpt          .... PW91-LDA
 Gradients option       PostSCFGGA      .... off
   Density functional embedding theory  .... OFF
   NL short-range parameter             ....  6.400000
 RI-approximation to the Coulomb term is turned on
   Number of auxiliary basis functions  .... 5008
   RIJ-COSX (HFX calculated with COS-X)).... on


General Settings:
 Integral files         IntName         .... zfs
 Hartree-Fock type      HFTyp           .... UHF
 Total Charge           Charge          ....   -1
 Multiplicity           Mult            ....    3
 Number of Electrons    NEL             ....  206
 Basis Dimension        Dim             ....  728
 Nuclear Repulsion      ENuc            ....   3308.0184381408 Eh

Convergence Acceleration:
 DIIS                   CNVDIIS         .... on
   Start iteration      DIISMaxIt       ....    12
   Startup error        DIISStart       ....  0.200000
   # of expansion vecs  DIISMaxEq       ....     5
   Bias factor          DIISBfac        ....   1.050
   Max. coefficient     DIISMaxC        ....  10.000
 Newton-Raphson         CNVNR           .... off
 SOSCF                  CNVSOSCF        .... off
 Level Shifting         CNVShift        .... on
   Level shift para.    LevelShift      ....    0.2500
   Turn off err/grad.   ShiftErr        ....    0.0010
 Zerner damping         CNVZerner       .... off
 Static damping         CNVDamp         .... on
   Fraction old density DampFac         ....    0.7000
   Max. Damping (<1)    DampMax         ....    0.9800
   Min. Damping (>=0)   DampMin         ....    0.0000
   Turn off err/grad.   DampErr         ....    0.1000
 Fernandez-Rico         CNVRico         .... off

SCF Procedure:
 Maximum # iterations   MaxIter         ....   125
 SCF integral mode      SCFMode         .... Direct
   Integral package                     .... LIBINT
 Reset frequency        DirectResetFreq ....    20
 Integral Threshold     Thresh          ....  1.000e-10 Eh
 Primitive CutOff       TCut            ....  1.000e-11 Eh

Convergence Tolerance:
 Convergence Check Mode ConvCheckMode   .... Total+1el-Energy
 Convergence forced     ConvForced      .... 0
 Energy Change          TolE            ....  1.000e-06 Eh
 1-El. energy change                    ....  1.000e-03 Eh
 DIIS Error             TolErr          ....  1.000e-06


Diagonalization of the overlap matrix:
Smallest eigenvalue                        ... 1.744e-04
Time for diagonalization                   ...    0.144 sec
Threshold for overlap eigenvalues          ... 1.000e-08
Number of eigenvalues below threshold      ... 0
Time for construction of square roots      ...    0.251 sec
Total time needed                          ...    0.398 sec

-------------------
DFT GRID GENERATION
-------------------

General Integration Accuracy     IntAcc      ...  4.340
Radial Grid Type                 RadialGrid  ... Gauss-Chebyshev
Angular Grid (max. acc.)         AngularGrid ... Lebedev-110
Angular grid pruning method      GridPruning ... 3 (G Style)
Weight generation scheme         WeightScheme... Becke
Basis function cutoff            BFCut       ...    1.0000e-10
Integration weight cutoff        WCut        ...    1.0000e-14
Grids for H and He will be reduced by one unit

# of grid points (after initial pruning)     ...  74998 (   0.0 sec)
# of grid points (after weights+screening)   ...  62518 (   0.1 sec)
nearest neighbour list constructed           ...    0.0 sec
Grid point re-assignment to atoms done       ...    0.0 sec
Grid point division into batches done        ...    0.1 sec
Reduced shell lists constructed in    0.1 sec

Total number of grid points                  ...    62518
Total number of batches                      ...     1011
Average number of points per batch           ...       61
Average number of grid points per atom       ...      977
Average number of shells per batch           ...   226.50 (52.43%)
Average number of basis functions per batch  ...   454.38 (62.41%)
Average number of large shells per batch     ...   170.38 (75.22%)
Average number of large basis fcns per batch ...   339.88 (74.80%)
Maximum spatial batch extension              ...   2.26,  2.29,  1.99 au
Average spatial batch extension              ...   0.03,  0.03,  0.02 au

Time for grid setup =    0.474 sec

------------------------------
INITIAL GUESS: MODEL POTENTIAL
------------------------------
Loading Hartree-Fock densities                     ... done
Calculating cut-offs                               ... done
Setting up the integral package                    ... done
Initializing the effective Hamiltonian             ... done
Starting the Coulomb interaction                   ... done (   0.1 sec)
Reading the grid                                   ... done
Mapping shells                                     ... done
Starting the XC term evaluation                    ... done (   0.2 sec)
  promolecular density results
     # of electrons  =    204.972100617
     EX              =   -156.126039795
     EC              =     -7.166819494
     EX+EC           =   -163.292859288
Transforming the Hamiltonian                       ... done (   0.1 sec)
Diagonalizing the Hamiltonian                      ... done (   0.1 sec)
Back transforming the eigenvectors                 ... done (   0.1 sec)
Now organizing SCF variables                       ... done
                      ------------------
                      INITIAL GUESS DONE (   1.2 sec)
                      ------------------
--------------------
COSX GRID GENERATION
--------------------

General Integration Accuracy     IntAcc      ...  3.340
Radial Grid Type                 RadialGrid  ... Gauss-Chebyshev
Angular Grid (max. acc.)         AngularGrid ... Lebedev-50
Angular grid pruning method      GridPruning ... 3 (G Style)
Weight generation scheme         WeightScheme... Becke
Basis function cutoff            BFCut       ...    1.0000e-10
Integration weight cutoff        WCut        ...    1.0000e-14
Grids for H and He will be reduced by one unit

# of grid points (after initial pruning)     ...  27746 (   0.0 sec)
# of grid points (after weights+screening)   ...  23400 (   0.0 sec)
nearest neighbour list constructed           ...    0.0 sec
Grid point re-assignment to atoms done       ...    0.0 sec
Grid point division into batches done        ...    0.0 sec
Reduced shell lists constructed in    0.0 sec

Total number of grid points                  ...    23400
Total number of batches                      ...      393
Average number of points per batch           ...       59
Average number of grid points per atom       ...      366
Average number of shells per batch           ...   218.86 (50.66%)
Average number of basis functions per batch  ...   438.00 (60.16%)
Average number of large shells per batch     ...   162.43 (74.22%)
Average number of large basis fcns per batch ...   325.29 (74.27%)
Maximum spatial batch extension              ...   2.77,  3.21,  2.80 au
Average spatial batch extension              ...   0.04,  0.03,  0.03 au

Overlap Fitting                  UseSFitting ... on
Constructing numerical overlap ... done (      0.0 sec)
Inverting numerical overlap    ... done (      0.0 sec)
Obtaining analytic overlap     ... done (      0.0 sec)
Final contraction and storage  ... done (      0.1 sec)


General Integration Accuracy     IntAcc      ...  3.670
Radial Grid Type                 RadialGrid  ... Gauss-Chebyshev
Angular Grid (max. acc.)         AngularGrid ... Lebedev-50
Angular grid pruning method      GridPruning ... 3 (G Style)
Weight generation scheme         WeightScheme... Becke
Basis function cutoff            BFCut       ...    1.0000e-10
Integration weight cutoff        WCut        ...    1.0000e-14
Grids for H and He will be reduced by one unit

# of grid points (after initial pruning)     ...  35464 (   0.0 sec)
# of grid points (after weights+screening)   ...  29835 (   0.0 sec)
nearest neighbour list constructed           ...    0.0 sec
Grid point re-assignment to atoms done       ...    0.0 sec
Grid point division into batches done        ...    0.0 sec
Reduced shell lists constructed in    0.0 sec

Total number of grid points                  ...    29835
Total number of batches                      ...      500
Average number of points per batch           ...       59
Average number of grid points per atom       ...      466
Average number of shells per batch           ...   223.38 (51.71%)
Average number of basis functions per batch  ...   447.62 (61.49%)
Average number of large shells per batch     ...   166.12 (74.37%)
Average number of large basis fcns per batch ...   332.38 (74.25%)
Maximum spatial batch extension              ...   3.12,  2.71,  2.79 au
Average spatial batch extension              ...   0.03,  0.03,  0.03 au

Overlap Fitting                  UseSFitting ... on
Constructing numerical overlap ... done (      0.0 sec)
Inverting numerical overlap    ... done (      0.0 sec)
Obtaining analytic overlap     ... done (      0.0 sec)
Final contraction and storage  ... done (      0.1 sec)


General Integration Accuracy     IntAcc      ...  4.010
Radial Grid Type                 RadialGrid  ... Gauss-Chebyshev
Angular Grid (max. acc.)         AngularGrid ... Lebedev-110
Angular grid pruning method      GridPruning ... 3 (G Style)
Weight generation scheme         WeightScheme... Becke
Basis function cutoff            BFCut       ...    1.0000e-10
Integration weight cutoff        WCut        ...    1.0000e-14
Grids for H and He will be reduced by one unit

# of grid points (after initial pruning)     ...  65152 (   0.0 sec)
# of grid points (after weights+screening)   ...  54599 (   0.1 sec)
nearest neighbour list constructed           ...    0.0 sec
Grid point re-assignment to atoms done       ...    0.0 sec
Grid point division into batches done        ...    0.0 sec
Reduced shell lists constructed in    0.1 sec

Total number of grid points                  ...    54599
Total number of batches                      ...      886
Average number of points per batch           ...       61
Average number of grid points per atom       ...      853
Average number of shells per batch           ...   227.86 (52.74%)
Average number of basis functions per batch  ...   457.29 (62.81%)
Average number of large shells per batch     ...   169.86 (74.55%)
Average number of large basis fcns per batch ...   340.29 (74.41%)
Maximum spatial batch extension              ...   2.90,  2.75,  2.49 au
Average spatial batch extension              ...   0.03,  0.03,  0.03 au

Overlap Fitting                  UseSFitting ... on
Constructing numerical overlap ... done (      0.1 sec)
Inverting numerical overlap    ... done (      0.0 sec)
Obtaining analytic overlap     ... done (      0.0 sec)
Final contraction and storage  ... done (      0.1 sec)

Time for X-Grid setup             =    1.261 sec
--------------
SCF ITERATIONS
--------------
ITER       Energy         Delta-E        Max-DP      RMS-DP      [F,P]     Damp
               ***  Starting incremental Fock matrix formation  ***
  0  -1102.3552197341   0.000000000000 7.88418774  0.02042685  0.1512536 0.7000
  1  -1102.7803468835  -0.425127149349 5.04181403  0.01275510  0.0656727 0.7000
                               ***Turning on DIIS***
  2  -1102.8704134206  -0.090066537156 0.85810871  0.00362286  0.0352289 0.0000
  3  -1103.1237832728  -0.253369852201 4.57483496  0.01133603  0.0323197 0.0000
  4  -1103.1569805165  -0.033197243649 1.47795800  0.00365068  0.0198666 0.0000
  5  -1103.1663346095  -0.009354093018 0.66385656  0.00160692  0.0057995 0.0000
  6  -1103.1676747820  -0.001340172494 0.45118463  0.00108295  0.0014016 0.0000
  7  -1103.1678817036  -0.000206921635 0.27266542  0.00064161  0.0023197 0.0000
  8  -1103.1679865432  -0.000104839559 0.57336706  0.00132438  0.0005465 0.0000
  9  -1103.1680533352  -0.000066791982 0.10373716  0.00029032  0.0007832 0.0000
 10  -1103.1680599022  -0.000006567038 0.09446161  0.00022703  0.0005394 0.0000
 11  -1103.1680645754  -0.000004673198 0.02922052  0.00006680  0.0003791 0.0000
 12  -1103.1680665293  -0.000001953858 0.00921107  0.00001994  0.0000679 0.0000
 13  -1103.1680663919   0.000000137311 0.00663078  0.00001215  0.0000930 0.0000
                 **** Energy Check signals convergence ****

               *****************************************************
               *                     SUCCESS                       *
               *           SCF CONVERGED AFTER  14 CYCLES          *
               *****************************************************

Setting up the final grid:

General Integration Accuracy     IntAcc      ...  4.670
Radial Grid Type                 RadialGrid  ... Gauss-Chebyshev
Angular Grid (max. acc.)         AngularGrid ... Lebedev-302
Angular grid pruning method      GridPruning ... 3 (G Style)
Weight generation scheme         WeightScheme... Becke
Basis function cutoff            BFCut       ...    1.0000e-10
Integration weight cutoff        WCut        ...    1.0000e-14
Grids for H and He will be reduced by one unit

# of grid points (after initial pruning)     ... 296120 (   0.0 sec)
# of grid points (after weights+screening)   ... 239137 (   0.2 sec)
nearest neighbour list constructed           ...    0.0 sec
Grid point re-assignment to atoms done       ...    0.1 sec
Grid point division into batches done        ...    0.8 sec
Reduced shell lists constructed in    0.9 sec

Total number of grid points                  ...   239137
Total number of batches                      ...     3772
Average number of points per batch           ...       63
Average number of grid points per atom       ...     3737
Average number of shells per batch           ...   226.74 (52.49%)
Average number of basis functions per batch  ...   456.00 (62.64%)
Average number of large shells per batch     ...   168.33 (74.24%)
Average number of large basis fcns per batch ...   332.37 (72.89%)
Maximum spatial batch extension              ...   1.96,  1.69,  2.23 au
Average spatial batch extension              ...   0.02,  0.02,  0.02 au

Final grid set up in    1.3 sec
Final integration                            ... done (   0.9 sec)
Change in XC energy                          ...     0.000212301
Integrated number of electrons               ...   205.999622137
Previous integrated no of electrons          ...   205.998854976

----------------
TOTAL SCF ENERGY
----------------

Total Energy       :        -1103.16785422 Eh          -30018.72344 eV

Components:
Nuclear Repulsion  :         3308.01843814 Eh           90015.75801 eV
Electronic Energy  :        -4411.18629236 Eh         -120034.48145 eV
One Electron Energy:        -8103.21665053 Eh         -220499.73505 eV
Two Electron Energy:         3692.03035816 Eh          100465.25360 eV

Virial components:
Potential Energy   :        -2203.45771413 Eh          -59959.13266 eV
Kinetic Energy     :         1100.28985990 Eh           29940.40923 eV
Virial Ratio       :            2.00261567


DFT components:
N(Alpha)           :      103.999807594685 electrons
N(Beta)            :      101.999814542473 electrons
N(Total)           :      205.999622137159 electrons
E(X)               :     -159.757079741004 Eh       
E(C)               :       -7.076925393245 Eh       
E(XC)              :     -166.834005134249 Eh       
DFET-embed. en.    :        0.000000000000 Eh       

---------------
SCF CONVERGENCE
---------------

  Last Energy change         ...   -1.3251e-07  Tolerance :   1.0000e-06
  Last MAX-Density change    ...    5.8212e-04  Tolerance :   1.0000e-05
  Last RMS-Density change    ...    1.7991e-06  Tolerance :   1.0000e-06
  Last DIIS Error            ...    3.3213e-05  Tolerance :   1.0000e-06

             **** THE GBW FILE WAS UPDATED (zfs.gbw) ****
             **** DENSITY FILE WAS UPDATED (zfs.scfp) ****
             **** ENERGY FILE WAS UPDATED (zfs.en.tmp) ****
----------------------
UHF SPIN CONTAMINATION
----------------------

Warning: in a DFT calculation there is little theoretical justification to 
         calculate <S**2> as in Hartree-Fock theory. We will do it anyways
         but you should keep in mind that the values have only limited relevance

Expectation value of <S**2>     :     2.011107
Ideal value S*(S+1) for S=1.0   :     2.000000
Deviation                       :     0.011107

             **** THE GBW FILE WAS UPDATED (zfs.gbw) ****
             **** DENSITY FILE WAS UPDATED (zfs.scfp) ****
----------------
ORBITAL ENERGIES
----------------
                 SPIN UP ORBITALS
  NO   OCC          E(Eh)            E(eV) 
   0   1.0000     -13.855712      -377.0331 
   1   1.0000      -9.801373      -266.7089 
   2   1.0000      -9.801316      -266.7074 
   3   1.0000      -9.801125      -266.7022 
   4   1.0000      -9.762834      -265.6602 
   5   1.0000      -9.762827      -265.6600 
   6   1.0000      -9.762805      -265.6594 
   7   1.0000      -9.762778      -265.6587 
   8   1.0000      -9.762704      -265.6567 
   9   1.0000      -9.762590      -265.6536 
  10   1.0000      -9.755852      -265.4702 
  11   1.0000      -9.755652      -265.4648 
  12   1.0000      -9.755381      -265.4574 
  13   1.0000      -9.749165      -265.2883 
  14   1.0000      -9.748964      -265.2828 
  15   1.0000      -9.748813      -265.2787 
  16   1.0000      -9.748420      -265.2680 
  17   1.0000      -9.748370      -265.2666 
  18   1.0000      -9.748339      -265.2658 
  19   1.0000      -9.740070      -265.0408 
  20   1.0000      -9.739592      -265.0278 
  21   1.0000      -9.739290      -265.0196 
  22   1.0000      -9.735864      -264.9263 
  23   1.0000      -9.735387      -264.9133 
  24   1.0000      -9.735282      -264.9105 
  25   1.0000      -9.734716      -264.8951 
  26   1.0000      -9.734524      -264.8899 
  27   1.0000      -9.734155      -264.8798 
  28   1.0000      -0.729689       -19.8558 
  29   1.0000      -0.667495       -18.1635 
  30   1.0000      -0.652333       -17.7509 
  31   1.0000      -0.652327       -17.7507 
  32   1.0000      -0.609369       -16.5818 
  33   1.0000      -0.598181       -16.2773 
  34   1.0000      -0.598049       -16.2737 
  35   1.0000      -0.582482       -15.8501 
  36   1.0000      -0.582403       -15.8480 
  37   1.0000      -0.545786       -14.8516 
  38   1.0000      -0.521605       -14.1936 
  39   1.0000      -0.521560       -14.1924 
  40   1.0000      -0.518985       -14.1223 
  41   1.0000      -0.515988       -14.0407 
  42   1.0000      -0.515674       -14.0322 
  43   1.0000      -0.501957       -13.6589 
  44   1.0000      -0.444688       -12.1006 
  45   1.0000      -0.444615       -12.0986 
  46   1.0000      -0.423883       -11.5344 
  47   1.0000      -0.405282       -11.0283 
  48   1.0000      -0.405256       -11.0276 
  49   1.0000      -0.400305       -10.8929 
  50   1.0000      -0.397558       -10.8181 
  51   1.0000      -0.384038       -10.4502 
  52   1.0000      -0.384001       -10.4492 
  53   1.0000      -0.358438        -9.7536 
  54   1.0000      -0.358010        -9.7420 
  55   1.0000      -0.357882        -9.7385 
  56   1.0000      -0.346479        -9.4282 
  57   1.0000      -0.312902        -8.5145 
  58   1.0000      -0.308987        -8.4080 
  59   1.0000      -0.308897        -8.4055 
  60   1.0000      -0.301301        -8.1988 
  61   1.0000      -0.301235        -8.1970 
  62   1.0000      -0.282090        -7.6761 
  63   1.0000      -0.279266        -7.5992 
  64   1.0000      -0.279234        -7.5983 
  65   1.0000      -0.275680        -7.5016 
  66   1.0000      -0.275637        -7.5005 
  67   1.0000      -0.242681        -6.6037 
  68   1.0000      -0.242628        -6.6023 
  69   1.0000      -0.238256        -6.4833 
  70   1.0000      -0.231095        -6.2884 
  71   1.0000      -0.228455        -6.2166 
  72   1.0000      -0.226332        -6.1588 
  73   1.0000      -0.226243        -6.1564 
  74   1.0000      -0.212469        -5.7816 
  75   1.0000      -0.212444        -5.7809 
  76   1.0000      -0.210152        -5.7185 
  77   1.0000      -0.197038        -5.3617 
  78   1.0000      -0.190632        -5.1874 
  79   1.0000      -0.190607        -5.1867 
  80   1.0000      -0.179311        -4.8793 
  81   1.0000      -0.179294        -4.8788 
  82   1.0000      -0.171447        -4.6653 
  83   1.0000      -0.166795        -4.5387 
  84   1.0000      -0.166758        -4.5377 
  85   1.0000      -0.161139        -4.3848 
  86   1.0000      -0.158682        -4.3180 
  87   1.0000      -0.156258        -4.2520 
  88   1.0000      -0.156174        -4.2497 
  89   1.0000      -0.146936        -3.9983 
  90   1.0000      -0.146917        -3.9978 
  91   1.0000      -0.135116        -3.6767 
  92   1.0000      -0.119937        -3.2637 
  93   1.0000      -0.119861        -3.2616 
  94   1.0000      -0.095582        -2.6009 
  95   1.0000      -0.095552        -2.6001 
  96   1.0000      -0.092626        -2.5205 
  97   1.0000      -0.077071        -2.0972 
  98   1.0000      -0.059065        -1.6072 
  99   1.0000      -0.056859        -1.5472 
 100   1.0000      -0.056542        -1.5386 
 101   1.0000       0.002028         0.0552 
 102   1.0000       0.047271         1.2863 
 103   1.0000       0.047616         1.2957 
 104   0.0000       0.096911         2.6371 
 105   0.0000       0.113808         3.0969 
 106   0.0000       0.116333         3.1656 
 107   0.0000       0.117230         3.1900 
 108   0.0000       0.124550         3.3892 
 109   0.0000       0.124952         3.4001 
 110   0.0000       0.126548         3.4435 
 111   0.0000       0.130639         3.5549 
 112   0.0000       0.131261         3.5718 
 113   0.0000       0.141473         3.8497 
 114   0.0000       0.141973         3.8633 
 115   0.0000       0.143881         3.9152 
 116   0.0000       0.150386         4.0922 
 117   0.0000       0.151100         4.1116 
 118   0.0000       0.153251         4.1702 
 119   0.0000       0.155442         4.2298 
 120   0.0000       0.179071         4.8728 
 121   0.0000       0.180211         4.9038 
 122   0.0000       0.184237         5.0133 
 123   0.0000       0.184692         5.0257 
 124   0.0000       0.184891         5.0311 
 125   0.0000       0.185458         5.0466 
 126   0.0000       0.193347         5.2612 
 127   0.0000       0.194138         5.2828 
 128   0.0000       0.195956         5.3322 
 129   0.0000       0.228141         6.2080 
 130   0.0000       0.228482         6.2173 
 131   0.0000       0.230065         6.2604 
 132   0.0000       0.239719         6.5231 
 133   0.0000       0.246492         6.7074 
 134   0.0000       0.249919         6.8006 
 135   0.0000       0.250042         6.8040 
 136   0.0000       0.251935         6.8555 
 137   0.0000       0.252421         6.8687 
 138   0.0000       0.275236         7.4896 
 139   0.0000       0.277143         7.5414 
 140   0.0000       0.277364         7.5475 
 141   0.0000       0.283574         7.7164 
 142   0.0000       0.284093         7.7306 
 143   0.0000       0.292226         7.9519 
 144   0.0000       0.292752         7.9662 
 145   0.0000       0.292907         7.9704 
 146   0.0000       0.296719         8.0741 
 147   0.0000       0.297354         8.0914 
 148   0.0000       0.297567         8.0972 
 149   0.0000       0.299439         8.1481 
 150   0.0000       0.308322         8.3899 
 151   0.0000       0.308579         8.3969 
 152   0.0000       0.311167         8.4673 
 153   0.0000       0.311805         8.4846 
 154   0.0000       0.313999         8.5444 
 155   0.0000       0.327483         8.9113 
 156   0.0000       0.331895         9.0313 
 157   0.0000       0.332218         9.0401 
 158   0.0000       0.340894         9.2762 
 159   0.0000       0.343718         9.3530 
 160   0.0000       0.344048         9.3620 
 161   0.0000       0.354992         9.6598 
 162   0.0000       0.355512         9.6740 
 163   0.0000       0.356883         9.7113 
 164   0.0000       0.366270         9.9667 
 165   0.0000       0.372303        10.1309 
 166   0.0000       0.373329        10.1588 
 167   0.0000       0.373936        10.1753 
 168   0.0000       0.381925        10.3927 
 169   0.0000       0.382146        10.3987 
 170   0.0000       0.382734        10.4147 
 171   0.0000       0.388837        10.5808 
 172   0.0000       0.389649        10.6029 
 173   0.0000       0.389989        10.6121 
 174   0.0000       0.392852        10.6900 
 175   0.0000       0.393416        10.7054 
 176   0.0000       0.394494        10.7347 
 177   0.0000       0.397295        10.8110 
 178   0.0000       0.398187        10.8352 
 179   0.0000       0.410708        11.1759 
 180   0.0000       0.411697        11.2029 
 181   0.0000       0.413597        11.2545 
 182   0.0000       0.427332        11.6283 
 183   0.0000       0.428064        11.6482 
 184   0.0000       0.428471        11.6593 
 185   0.0000       0.428948        11.6723 
 186   0.0000       0.429219        11.6796 
 187   0.0000       0.431735        11.7481 
 188   0.0000       0.432576        11.7710 
 189   0.0000       0.433921        11.8076 
 190   0.0000       0.436725        11.8839 
 191   0.0000       0.437959        11.9175 
 192   0.0000       0.438514        11.9326 
 193   0.0000       0.451086        12.2747 
 194   0.0000       0.460529        12.5316 
 195   0.0000       0.461260        12.5515 
 196   0.0000       0.467336        12.7169 
 197   0.0000       0.470907        12.8140 
 198   0.0000       0.471695        12.8355 
 199   0.0000       0.472686        12.8625 
 200   0.0000       0.482393        13.1266 
 201   0.0000       0.483258        13.1501 
 202   0.0000       0.498578        13.5670 
 203   0.0000       0.507927        13.8214 
 204   0.0000       0.509389        13.8612 
 205   0.0000       0.510985        13.9046 
 206   0.0000       0.515650        14.0316 
 207   0.0000       0.516705        14.0603 
 208   0.0000       0.527313        14.3489 
 209   0.0000       0.534819        14.5532 
 210   0.0000       0.535947        14.5839 
 211   0.0000       0.537163        14.6169 
 212   0.0000       0.541701        14.7404 
 213   0.0000       0.546837        14.8802 
 214   0.0000       0.548004        14.9119 
 215   0.0000       0.551246        15.0002 
 216   0.0000       0.558196        15.1893 
 217   0.0000       0.558892        15.2082 
 218   0.0000       0.559362        15.2210 
 219   0.0000       0.575567        15.6620 
 220   0.0000       0.579346        15.7648 
 221   0.0000       0.580658        15.8005 
 222   0.0000       0.590236        16.0611 
 223   0.0000       0.591248        16.0887 
 224   0.0000       0.600080        16.3290 
 225   0.0000       0.603009        16.4087 
 226   0.0000       0.604441        16.4477 
 227   0.0000       0.607979        16.5439 
 228   0.0000       0.616243        16.7688 
 229   0.0000       0.617990        16.8164 
 230   0.0000       0.619416        16.8552 
 231   0.0000       0.620181        16.8760 
 232   0.0000       0.621463        16.9109 
 233   0.0000       0.623093        16.9552 
 234   0.0000       0.624291        16.9878 
 235   0.0000       0.625246        17.0138 
 236   0.0000       0.634105        17.2549 
 237   0.0000       0.644505        17.5379 
 238   0.0000       0.645012        17.5517 
 239   0.0000       0.646776        17.5997 
 240   0.0000       0.657776        17.8990 
 241   0.0000       0.658239        17.9116 
 242   0.0000       0.664307        18.0767 
 243   0.0000       0.679103        18.4793 
 244   0.0000       0.697409        18.9775 
 245   0.0000       0.698879        19.0175 
 246   0.0000       0.702589        19.1184 
 247   0.0000       0.703516        19.1436 
 248   0.0000       0.708486        19.2789 
 249   0.0000       0.713826        19.4242 
 250   0.0000       0.714116        19.4321 
 251   0.0000       0.714617        19.4457 
 252   0.0000       0.730070        19.8662 
 253   0.0000       0.736004        20.0277 
 254   0.0000       0.737403        20.0658 
 255   0.0000       0.737855        20.0781 
 256   0.0000       0.744745        20.2655 
 257   0.0000       0.746342        20.3090 
 258   0.0000       0.757917        20.6240 
 259   0.0000       0.758508        20.6401 
 260   0.0000       0.761143        20.7117 
 261   0.0000       0.761395        20.7186 
 262   0.0000       0.762038        20.7361 
 263   0.0000       0.779390        21.2083 
 264   0.0000       0.812126        22.0991 
 265   0.0000       0.828367        22.5410 
 266   0.0000       0.852675        23.2025 
 267   0.0000       0.853086        23.2136 
 268   0.0000       0.856928        23.3182 
 269   0.0000       0.857404        23.3311 
 270   0.0000       0.896121        24.3847 
 271   0.0000       0.898502        24.4495 
 272   0.0000       0.906209        24.6592 
 273   0.0000       0.908034        24.7089 
 274   0.0000       0.916098        24.9283 
 275   0.0000       0.923338        25.1253 
 276   0.0000       0.924404        25.1543 
 277   0.0000       0.942378        25.6434 
 278   0.0000       0.951010        25.8783 
 279   0.0000       0.951700        25.8971 
 280   0.0000       0.956236        26.0205 
 281   0.0000       0.957868        26.0649 
 282   0.0000       0.958882        26.0925 
 283   0.0000       0.961323        26.1589 
 284   0.0000       0.964720        26.2514 
 285   0.0000       0.965533        26.2735 
 286   0.0000       0.984435        26.7878 
 287   0.0000       1.007626        27.4189 
 288   0.0000       1.010677        27.5019 
 289   0.0000       1.011537        27.5253 
 290   0.0000       1.016004        27.6469 
 291   0.0000       1.017168        27.6786 
 292   0.0000       1.018137        27.7049 
 293   0.0000       1.030002        28.0278 
 294   0.0000       1.030456        28.0401 
 295   0.0000       1.039833        28.2953 
 296   0.0000       1.040316        28.3084 
 297   0.0000       1.041533        28.3415 
 298   0.0000       1.046314        28.4716 
 299   0.0000       1.046799        28.4849 
 300   0.0000       1.054609        28.6974 
 301   0.0000       1.060160        28.8484 
 302   0.0000       1.060861        28.8675 
 303   0.0000       1.061052        28.8727 
 304   0.0000       1.067062        29.0362 
 305   0.0000       1.067293        29.0425 
 306   0.0000       1.070596        29.1324 
 307   0.0000       1.088392        29.6167 
 308   0.0000       1.095112        29.7995 
 309   0.0000       1.096498        29.8372 
 310   0.0000       1.125139        30.6166 
 311   0.0000       1.131167        30.7806 
 312   0.0000       1.131562        30.7914 
 313   0.0000       1.132484        30.8165 
 314   0.0000       1.135505        30.8987 
 315   0.0000       1.135802        30.9067 
 316   0.0000       1.139911        31.0186 
 317   0.0000       1.141079        31.0503 
 318   0.0000       1.142255        31.0823 
 319   0.0000       1.146474        31.1971 
 320   0.0000       1.147222        31.2175 
 321   0.0000       1.148648        31.2563 
 322   0.0000       1.148905        31.2633 
 323   0.0000       1.153455        31.3871 
 324   0.0000       1.154086        31.4043 
 325   0.0000       1.154399        31.4128 
 326   0.0000       1.155198        31.4345 
 327   0.0000       1.160556        31.5803 
 328   0.0000       1.161403        31.6034 
 329   0.0000       1.170394        31.8480 
 330   0.0000       1.204089        32.7649 
 331   0.0000       1.205057        32.7913 
 332   0.0000       1.205465        32.8024 
 333   0.0000       1.206340        32.8262 
 334   0.0000       1.209040        32.8996 
 335   0.0000       1.209195        32.9039 
 336   0.0000       1.214382        33.0450 
 337   0.0000       1.214898        33.0591 
 338   0.0000       1.215501        33.0755 
 339   0.0000       1.216445        33.1012 
 340   0.0000       1.233221        33.5577 
 341   0.0000       1.233932        33.5770 
 342   0.0000       1.249671        34.0053 
 343   0.0000       1.270507        34.5723 
 344   0.0000       1.279517        34.8174 
 345   0.0000       1.279788        34.8248 
 346   0.0000       1.282315        34.8936 
 347   0.0000       1.290390        35.1133 
 348   0.0000       1.293829        35.2069 
 349   0.0000       1.295289        35.2466 
 350   0.0000       1.306967        35.5644 
 351   0.0000       1.308458        35.6050 
 352   0.0000       1.313632        35.7457 
 353   0.0000       1.327723        36.1292 
 354   0.0000       1.330580        36.2069 
 355   0.0000       1.331274        36.2258 
 356   0.0000       1.368425        37.2367 
 357   0.0000       1.368721        37.2448 
 358   0.0000       1.381927        37.6041 
 359   0.0000       1.384817        37.6828 
 360   0.0000       1.385408        37.6989 
 361   0.0000       1.402794        38.1720 
 362   0.0000       1.404063        38.2065 
 363   0.0000       1.405018        38.2325 
 364   0.0000       1.411901        38.4198 
 365   0.0000       1.428810        38.8799 
 366   0.0000       1.429561        38.9003 
 367   0.0000       1.438142        39.1338 
 368   0.0000       1.440487        39.1977 
 369   0.0000       1.440951        39.2103 
 370   0.0000       1.454942        39.5910 
 371   0.0000       1.455696        39.6115 
 372   0.0000       1.464178        39.8423 
 373   0.0000       1.485150        40.4130 
 374   0.0000       1.486873        40.4599 
 375   0.0000       1.487586        40.4793 
 376   0.0000       1.496906        40.7329 
 377   0.0000       1.497265        40.7427 
 378   0.0000       1.498230        40.7689 
 379   0.0000       1.505718        40.9727 
 380   0.0000       1.507345        41.0169 
 381   0.0000       1.507713        41.0269 
 382   0.0000       1.511576        41.1321 
 383   0.0000       1.518323        41.3157 
 384   0.0000       1.518869        41.3305 
 385   0.0000       1.530691        41.6522 
 386   0.0000       1.532840        41.7107 
 387   0.0000       1.533423        41.7265 
 388   0.0000       1.539705        41.8975 
 389   0.0000       1.540299        41.9137 
 390   0.0000       1.540659        41.9235 
 391   0.0000       1.553855        42.2826 
 392   0.0000       1.565149        42.5899 
 393   0.0000       1.565564        42.6012 
 394   0.0000       1.566252        42.6199 
 395   0.0000       1.571514        42.7631 
 396   0.0000       1.571859        42.7724 
 397   0.0000       1.583316        43.0842 
 398   0.0000       1.598610        43.5004 
 399   0.0000       1.598816        43.5060 
 400   0.0000       1.611893        43.8618 
 401   0.0000       1.615523        43.9606 
 402   0.0000       1.616302        43.9818 
 403   0.0000       1.621122        44.1130 
 404   0.0000       1.641870        44.6776 
 405   0.0000       1.645393        44.7734 
 406   0.0000       1.650921        44.9239 
 407   0.0000       1.651581        44.9418 
 408   0.0000       1.662467        45.2380 
 409   0.0000       1.662781        45.2466 
 410   0.0000       1.668333        45.3977 
 411   0.0000       1.668786        45.4100 
 412   0.0000       1.686276        45.8859 
 413   0.0000       1.686437        45.8903 
 414   0.0000       1.687972        45.9321 
 415   0.0000       1.688080        45.9350 
 416   0.0000       1.688339        45.9421 
 417   0.0000       1.708015        46.4775 
 418   0.0000       1.731510        47.1168 
 419   0.0000       1.731868        47.1265 
 420   0.0000       1.736002        47.2390 
 421   0.0000       1.744534        47.4712 
 422   0.0000       1.745048        47.4852 
 423   0.0000       1.749951        47.6186 
 424   0.0000       1.752650        47.6920 
 425   0.0000       1.752918        47.6993 
 426   0.0000       1.763219        47.9796 
 427   0.0000       1.763618        47.9905 
 428   0.0000       1.781211        48.4692 
 429   0.0000       1.801083        49.0100 
 430   0.0000       1.801725        49.0274 
 431   0.0000       1.806841        49.1666 
 432   0.0000       1.807075        49.1730 
 433   0.0000       1.812397        49.3178 
 434   0.0000       1.812480        49.3201 
 435   0.0000       1.819353        49.5071 
 436   0.0000       1.819650        49.5152 
 437   0.0000       1.825270        49.6681 
 438   0.0000       1.832320        49.8600 
 439   0.0000       1.832636        49.8686 
 440   0.0000       1.835677        49.9513 
 441   0.0000       1.840437        50.0808 
 442   0.0000       1.841138        50.0999 
 443   0.0000       1.851147        50.3723 
 444   0.0000       1.855669        50.4953 
 445   0.0000       1.856091        50.5068 
 446   0.0000       1.857540        50.5462 
 447   0.0000       1.858105        50.5616 
 448   0.0000       1.858632        50.5759 
 449   0.0000       1.870095        50.8879 
 450   0.0000       1.905703        51.8568 
 451   0.0000       1.905911        51.8625 
 452   0.0000       1.907139        51.8959 
 453   0.0000       1.926051        52.4105 
 454   0.0000       1.930653        52.5357 
 455   0.0000       1.933191        52.6048 
 456   0.0000       1.939586        52.7788 
 457   0.0000       1.939880        52.7868 
 458   0.0000       1.943687        52.8904 
 459   0.0000       1.944428        52.9106 
 460   0.0000       1.950766        53.0830 
 461   0.0000       1.951053        53.0908 
 462   0.0000       1.967193        53.5301 
 463   0.0000       1.969283        53.5869 
 464   0.0000       1.971127        53.6371 
 465   0.0000       1.971463        53.6462 
 466   0.0000       1.993230        54.2386 
 467   0.0000       1.997275        54.3486 
 468   0.0000       1.997533        54.3556 
 469   0.0000       2.007048        54.6146 
 470   0.0000       2.007398        54.6241 
 471   0.0000       2.015193        54.8362 
 472   0.0000       2.017140        54.8892 
 473   0.0000       2.017431        54.8971 
 474   0.0000       2.024105        55.0787 
 475   0.0000       2.032719        55.3131 
 476   0.0000       2.033225        55.3269 
 477   0.0000       2.039797        55.5057 
 478   0.0000       2.039969        55.5104 
 479   0.0000       2.043332        55.6019 
 480   0.0000       2.052516        55.8518 
 481   0.0000       2.053325        55.8738 
 482   0.0000       2.069178        56.3052 
 483   0.0000       2.081872        56.6506 
 484   0.0000       2.084689        56.7273 
 485   0.0000       2.086854        56.7862 
 486   0.0000       2.087317        56.7988 
 487   0.0000       2.105598        57.2962 
 488   0.0000       2.105883        57.3040 
 489   0.0000       2.110490        57.4294 
 490   0.0000       2.118579        57.6495 
 491   0.0000       2.118934        57.6591 
 492   0.0000       2.124690        57.8158 
 493   0.0000       2.126190        57.8566 
 494   0.0000       2.126354        57.8610 
 495   0.0000       2.151168        58.5363 
 496   0.0000       2.162903        58.8556 
 497   0.0000       2.179133        59.2972 
 498   0.0000       2.179513        59.3076 
 499   0.0000       2.193354        59.6842 
 500   0.0000       2.209618        60.1268 
 501   0.0000       2.213435        60.2306 
 502   0.0000       2.213688        60.2375 
 503   0.0000       2.224164        60.5226 
 504   0.0000       2.224875        60.5419 
 505   0.0000       2.225089        60.5477 
 506   0.0000       2.229403        60.6651 
 507   0.0000       2.229697        60.6731 
 508   0.0000       2.250389        61.2362 
 509   0.0000       2.250750        61.2460 
 510   0.0000       2.274393        61.8894 
 511   0.0000       2.275128        61.9094 
 512   0.0000       2.290824        62.3365 
 513   0.0000       2.296195        62.4826 
 514   0.0000       2.307656        62.7945 
 515   0.0000       2.308051        62.8053 
 516   0.0000       2.314174        62.9719 
 517   0.0000       2.326403        63.3047 
 518   0.0000       2.347916        63.8900 
 519   0.0000       2.348147        63.8963 
 520   0.0000       2.358923        64.1896 
 521   0.0000       2.359402        64.2026 
 522   0.0000       2.359809        64.2137 
 523   0.0000       2.395118        65.1745 
 524   0.0000       2.395825        65.1937 
 525   0.0000       2.417780        65.7911 
 526   0.0000       2.423881        65.9572 
 527   0.0000       2.423981        65.9599 
 528   0.0000       2.426402        66.0258 
 529   0.0000       2.435580        66.2755 
 530   0.0000       2.435917        66.2847 
 531   0.0000       2.446291        66.5670 
 532   0.0000       2.456733        66.8511 
 533   0.0000       2.456883        66.8552 
 534   0.0000       2.468128        67.1612 
 535   0.0000       2.468370        67.1678 
 536   0.0000       2.474073        67.3230 
 537   0.0000       2.479461        67.4696 
 538   0.0000       2.511264        68.3350 
 539   0.0000       2.511911        68.3526 
 540   0.0000       2.522389        68.6377 
 541   0.0000       2.550421        69.4005 
 542   0.0000       2.564698        69.7890 
 543   0.0000       2.565290        69.8051 
 544   0.0000       2.584171        70.3189 
 545   0.0000       2.588202        70.4286 
 546   0.0000       2.600025        70.7503 
 547   0.0000       2.600250        70.7564 
 548   0.0000       2.616759        71.2056 
 549   0.0000       2.617250        71.2190 
 550   0.0000       2.632926        71.6455 
 551   0.0000       2.633234        71.6539 
 552   0.0000       2.633394        71.6583 
 553   0.0000       2.671483        72.6947 
 554   0.0000       2.682700        73.0000 
 555   0.0000       2.694733        73.3274 
 556   0.0000       2.695017        73.3351 
 557   0.0000       2.739682        74.5505 
 558   0.0000       2.745267        74.7025 
 559   0.0000       2.747848        74.7727 
[...]
 521( 0) :     2.359403 a.u.    64.203 eV
 522( 0) :     2.359812 a.u.    64.214 eV
 523( 0) :     2.395117 a.u.    65.174 eV
 524( 0) :     2.395828 a.u.    65.194 eV
 525( 0) :     2.417783 a.u.    65.791 eV
 526( 0) :     2.423883 a.u.    65.957 eV
 527( 0) :     2.423983 a.u.    65.960 eV
 528( 0) :     2.426406 a.u.    66.026 eV
 529( 0) :     2.435581 a.u.    66.276 eV
 530( 0) :     2.435918 a.u.    66.285 eV
 531( 0) :     2.446292 a.u.    66.567 eV
 532( 0) :     2.456736 a.u.    66.851 eV
 533( 0) :     2.456887 a.u.    66.855 eV
 534( 0) :     2.468131 a.u.    67.161 eV
 535( 0) :     2.468373 a.u.    67.168 eV
 536( 0) :     2.474077 a.u.    67.323 eV
 537( 0) :     2.479460 a.u.    67.470 eV
 538( 0) :     2.511265 a.u.    68.335 eV
 539( 0) :     2.511913 a.u.    68.353 eV
 540( 0) :     2.522389 a.u.    68.638 eV
 541( 0) :     2.550424 a.u.    69.401 eV
 542( 0) :     2.564697 a.u.    69.789 eV
 543( 0) :     2.565288 a.u.    69.805 eV
 544( 0) :     2.584176 a.u.    70.319 eV
 545( 0) :     2.588195 a.u.    70.428 eV
 546( 0) :     2.600024 a.u.    70.750 eV
 547( 0) :     2.600250 a.u.    70.756 eV
 548( 0) :     2.616759 a.u.    71.206 eV
 549( 0) :     2.617248 a.u.    71.219 eV
 550( 0) :     2.632926 a.u.    71.646 eV
 551( 0) :     2.633233 a.u.    71.654 eV
 552( 0) :     2.633395 a.u.    71.658 eV
 553( 0) :     2.671483 a.u.    72.695 eV
 554( 0) :     2.682701 a.u.    73.000 eV
 555( 0) :     2.694733 a.u.    73.327 eV
 556( 0) :     2.695016 a.u.    73.335 eV
 557( 0) :     2.739686 a.u.    74.551 eV
 558( 0) :     2.745269 a.u.    74.703 eV
 559( 0) :     2.747851 a.u.    74.773 eV
 560( 0) :     2.747905 a.u.    74.774 eV
 561( 0) :     2.757851 a.u.    75.045 eV
 562( 0) :     2.758000 a.u.    75.049 eV
 563( 0) :     2.768294 a.u.    75.329 eV
 564( 0) :     2.768476 a.u.    75.334 eV
 565( 0) :     2.777252 a.u.    75.573 eV
 566( 0) :     2.785277 a.u.    75.791 eV
 567( 0) :     2.785667 a.u.    75.802 eV
 568( 0) :     2.791201 a.u.    75.952 eV
 569( 0) :     2.795752 a.u.    76.076 eV
 570( 0) :     2.796529 a.u.    76.097 eV
 571( 0) :     2.798662 a.u.    76.155 eV
 572( 0) :     2.819036 a.u.    76.710 eV
 573( 0) :     2.819342 a.u.    76.718 eV
 574( 0) :     2.856654 a.u.    77.734 eV
 575( 0) :     2.859594 a.u.    77.814 eV
 576( 0) :     2.860216 a.u.    77.830 eV
 577( 0) :     2.875661 a.u.    78.251 eV
 578( 0) :     2.875796 a.u.    78.254 eV
 579( 0) :     2.910618 a.u.    79.202 eV
 580( 0) :     2.911132 a.u.    79.216 eV
 581( 0) :     2.922666 a.u.    79.530 eV
 582( 0) :     2.922996 a.u.    79.539 eV
 583( 0) :     2.925524 a.u.    79.608 eV
 584( 0) :     2.934076 a.u.    79.840 eV
 585( 0) :     2.963038 a.u.    80.628 eV
 586( 0) :     2.963855 a.u.    80.651 eV
 587( 0) :     2.975306 a.u.    80.962 eV
 588( 0) :     2.986173 a.u.    81.258 eV
 589( 0) :     2.986897 a.u.    81.278 eV
 590( 0) :     3.063137 a.u.    83.352 eV
 591( 0) :     3.063414 a.u.    83.360 eV
 592( 0) :     3.067190 a.u.    83.462 eV
 593( 0) :     3.140758 a.u.    85.464 eV
 594( 0) :     3.799740 a.u.   103.396 eV
 595( 0) :     3.805611 a.u.   103.556 eV
 596( 0) :     3.836004 a.u.   104.383 eV
 597( 0) :     3.850255 a.u.   104.771 eV
 598( 0) :     3.886338 a.u.   105.753 eV
 599( 0) :     3.887200 a.u.   105.776 eV
 600( 0) :     5.167493 a.u.   140.615 eV
 601( 0) :     5.167659 a.u.   140.619 eV
 602( 0) :     5.176469 a.u.   140.859 eV
 603( 0) :     5.181898 a.u.   141.007 eV
 604( 0) :     5.182369 a.u.   141.019 eV
 605( 0) :     5.184930 a.u.   141.089 eV
 606( 0) :     5.280503 a.u.   143.690 eV
 607( 0) :     5.280596 a.u.   143.692 eV
 608( 0) :     5.285641 a.u.   143.830 eV
 609( 0) :     5.287499 a.u.   143.880 eV
 610( 0) :     5.287639 a.u.   143.884 eV
 611( 0) :     5.289644 a.u.   143.939 eV
 612( 0) :     5.298114 a.u.   144.169 eV
 613( 0) :     5.298544 a.u.   144.181 eV
 614( 0) :     5.300946 a.u.   144.246 eV
 615( 0) :     5.318867 a.u.   144.734 eV
 616( 0) :     5.319197 a.u.   144.743 eV
 617( 0) :     5.338312 a.u.   145.263 eV
 618( 0) :     5.371282 a.u.   146.160 eV
 619( 0) :     5.371966 a.u.   146.179 eV
 620( 0) :     5.383382 a.u.   146.489 eV
 621( 0) :     5.399217 a.u.   146.920 eV
 622( 0) :     5.399537 a.u.   146.929 eV
 623( 0) :     5.402991 a.u.   147.023 eV
 624( 0) :     5.417006 a.u.   147.404 eV
 625( 0) :     5.455741 a.u.   148.458 eV
 626( 0) :     5.456193 a.u.   148.471 eV
 627( 0) :     5.456306 a.u.   148.474 eV
 628( 0) :     5.486277 a.u.   149.289 eV
 629( 0) :     5.487557 a.u.   149.324 eV
 630( 0) :     5.487635 a.u.   149.326 eV
 631( 0) :     5.506871 a.u.   149.850 eV
 632( 0) :     5.520019 a.u.   150.207 eV
 633( 0) :     5.521440 a.u.   150.246 eV
 634( 0) :     5.546021 a.u.   150.915 eV
 635( 0) :     5.546249 a.u.   150.921 eV
 636( 0) :     5.557333 a.u.   151.223 eV
 637( 0) :     5.585420 a.u.   151.987 eV
 638( 0) :     5.587660 a.u.   152.048 eV
 639( 0) :     5.588390 a.u.   152.068 eV
 640( 0) :     5.646868 a.u.   153.659 eV
 641( 0) :     5.648360 a.u.   153.700 eV
 642( 0) :     5.669315 a.u.   154.270 eV
 643( 0) :     5.729632 a.u.   155.911 eV
 644( 0) :     5.730410 a.u.   155.932 eV
 645( 0) :     5.745880 a.u.   156.353 eV
 646( 0) :     5.753169 a.u.   156.552 eV
 647( 0) :     5.758593 a.u.   156.699 eV
 648( 0) :     5.759199 a.u.   156.716 eV
 649( 0) :     5.839246 a.u.   158.894 eV
 650( 0) :     5.839456 a.u.   158.900 eV
 651( 0) :     5.894772 a.u.   160.405 eV
 652( 0) :     5.990228 a.u.   163.002 eV
 653( 0) :     5.990338 a.u.   163.005 eV
 654( 0) :     6.074696 a.u.   165.301 eV
 655( 0) :     6.075354 a.u.   165.319 eV
 656( 0) :     6.085581 a.u.   165.597 eV
 657( 0) :     6.096911 a.u.   165.905 eV
 658( 0) :     6.106743 a.u.   166.173 eV
 659( 0) :     6.107369 a.u.   166.190 eV
 660( 0) :     6.114994 a.u.   166.397 eV
 661( 0) :     6.115396 a.u.   166.408 eV
 662( 0) :     6.122029 a.u.   166.589 eV
 663( 0) :     7.460366 a.u.   203.007 eV
 664( 0) :    29.649890 a.u.   806.815 eV
 665( 0) :    29.717653 a.u.   808.658 eV
 666( 0) :    29.717855 a.u.   808.664 eV
 667( 0) :    29.782778 a.u.   810.431 eV
 668( 0) :    29.793253 a.u.   810.716 eV
 669( 0) :    29.793338 a.u.   810.718 eV
 670( 0) :    29.832322 a.u.   811.779 eV
 671( 0) :    30.009908 a.u.   816.611 eV
 672( 0) :    30.010386 a.u.   816.624 eV
 673( 0) :    30.019134 a.u.   816.862 eV
 674( 0) :    30.035442 a.u.   817.306 eV
 675( 0) :    30.041097 a.u.   817.460 eV
 676( 0) :    30.041432 a.u.   817.469 eV
 677( 0) :    30.108516 a.u.   819.294 eV
 678( 0) :    30.108628 a.u.   819.297 eV
 679( 0) :    30.148944 a.u.   820.394 eV
 680( 0) :    30.240199 a.u.   822.878 eV
 681( 0) :    30.240289 a.u.   822.880 eV
 682( 0) :    30.295787 a.u.   824.390 eV
 683( 0) :    30.295938 a.u.   824.394 eV
 684( 0) :    30.319192 a.u.   825.027 eV
 685( 0) :    30.321308 a.u.   825.085 eV
 686( 0) :    30.329185 a.u.   825.299 eV
 687( 0) :    30.329493 a.u.   825.307 eV
 688( 0) :    30.333832 a.u.   825.426 eV
 689( 0) :    30.338774 a.u.   825.560 eV
 690( 0) :    30.338914 a.u.   825.564 eV
 691( 0) :    36.673778 a.u.   997.944 eV
 692( 0) :    36.681862 a.u.   998.164 eV
 693( 0) :    36.682035 a.u.   998.169 eV
 694( 0) :    36.764011 a.u.  1000.400 eV
 695( 0) :    36.766097 a.u.  1000.456 eV
 696( 0) :    36.774625 a.u.  1000.688 eV
 697( 0) :    36.863051 a.u.  1003.095 eV
 698( 0) :    36.878813 a.u.  1003.524 eV
 699( 0) :    36.878991 a.u.  1003.528 eV
 700( 0) :    36.893317 a.u.  1003.918 eV
 701( 0) :    36.893428 a.u.  1003.921 eV
 702( 0) :    36.893487 a.u.  1003.923 eV
 703( 0) :    36.894509 a.u.  1003.951 eV
 704( 0) :    36.905522 a.u.  1004.250 eV
 705( 0) :    36.905908 a.u.  1004.261 eV
 706( 0) :    36.909045 a.u.  1004.346 eV
 707( 0) :    36.909188 a.u.  1004.350 eV
 708( 0) :    36.939122 a.u.  1005.165 eV
 709( 0) :    36.962175 a.u.  1005.792 eV
 710( 0) :    36.962240 a.u.  1005.794 eV
 711( 0) :    36.978843 a.u.  1006.245 eV
 712( 0) :    36.987463 a.u.  1006.480 eV
 713( 0) :    37.012493 a.u.  1007.161 eV
 714( 0) :    37.012789 a.u.  1007.169 eV
 715( 0) :    37.015765 a.u.  1007.250 eV
 716( 0) :    37.026677 a.u.  1007.547 eV
 717( 0) :    37.032294 a.u.  1007.700 eV
 718( 0) :    37.105304 a.u.  1009.687 eV
 719( 0) :    37.105817 a.u.  1009.701 eV
 720( 0) :    37.111712 a.u.  1009.861 eV
 721( 0) :    37.245689 a.u.  1013.507 eV
 722( 0) :    37.253996 a.u.  1013.733 eV
 723( 0) :    37.269628 a.u.  1014.158 eV
 724( 0) :    37.358717 a.u.  1016.582 eV
 725( 0) :    37.371193 a.u.  1016.922 eV
 726( 0) :    37.371745 a.u.  1016.937 eV
 727( 0) :    41.163219 a.u.  1120.108 eV
-------
TIMINGS
-------

Total SCF time: 0 days 0 hours 1 min 8 sec 

Total time                  ....      68.516 sec
Sum of individual times     ....      65.114 sec  ( 95.0%)

Fock matrix formation       ....      42.393 sec  ( 61.9%)
  Split-RI-J                ....      24.973 sec  ( 58.9% of F)
  XC integration            ....      10.520 sec  ( 24.8% of F)
    Basis function eval.    ....       0.324 sec  (  3.1% of XC)
    Density eval.           ....       0.870 sec  (  8.3% of XC)
    XC-Functional eval.     ....       0.053 sec  (  0.5% of XC)
    XC-Potential eval.      ....       1.158 sec  ( 11.0% of XC)
Diagonalization             ....       8.101 sec  ( 11.8%)
Density matrix formation    ....       0.669 sec  (  1.0%)
Population analysis         ....       4.065 sec  (  5.9%)
Initial guess               ....       0.777 sec  (  1.1%)
Orbital Transformation      ....       0.000 sec  (  0.0%)
Orbital Orthonormalization  ....       0.000 sec  (  0.0%)
DIIS solution               ....       6.025 sec  (  8.8%)
Grid generation             ....       3.083 sec  (  4.5%)

-------------------------   --------------------
FINAL SINGLE POINT ENERGY     -1103.167854223639
-------------------------   --------------------

   --->>> SOC part of D-tensor requested, so NeedSOC=true

                            ***************************************
                            *     ORCA property calculations      *
                            ***************************************

                                    ---------------------
                                    Active property flags
                                    ---------------------
   (+) Dipole Moment
   (+) D-tensor
   (+) Spin-Orbit Integrals are needed


------------------------------------------------------------------------------
                       ORCA ELECTRIC PROPERTIES CALCULATION
------------------------------------------------------------------------------

Dipole Moment Calculation                       ... on
Quadrupole Moment Calculation                   ... off
Polarizability Calculation                      ... off
GBWName                                         ... zfs.gbw
Electron density file                           ... zfs.scfp
The origin for moment calculation is the CENTER OF MASS  = ( 0.000016,  0.000052 -3.167486)

-------------
DIPOLE MOMENT
-------------
                                X             Y             Z
Electronic contribution:     -0.00488      -0.00091       1.06704
Nuclear contribution   :     -0.00145      -0.00352      -0.32886
                        -----------------------------------------
Total Dipole Moment    :     -0.00634      -0.00444       0.73818
                        -----------------------------------------
Magnitude (a.u.)       :      0.73822
Magnitude (Debye)      :      1.87640



--------------------
Rotational spectrum 
--------------------
 
Rotational constants in cm-1:     0.009246     0.009141     0.009141 
Rotational constants in MHz :   277.183097   274.048600   274.045280 

 Dipole components along the rotational axes: 
x,y,z [a.u.] :     0.738182    -0.005641     0.004592 
x,y,z [Debye]:     1.876309    -0.014337     0.011672 

 


           ************************************************************
           *        Program running with 72 parallel MPI-processes    *
           *              working on a shared directory               *
           ************************************************************
------------------------------------------------------------------------------
                         ORCA SPIN-ORBIT COUPLING CALCULATION
------------------------------------------------------------------------------

GBW file                                    ... zfs.gbw
Input density                               ... zfs.scfp
Output integrals                            ... zfs
Operator type                               ... Mean-field/Effective potential
   One-Electron Terms                       ... 1
   Coulomb Contribution                     ... 2
   Exchange Contribution                    ... 3
   Correlation Contribution                 ... 0
   Maximum number of centers                ... 4
Setting up the integration grid             ... done
Evaluating density on the grid              ... (NumEl=  205.998855) done
Evaluating Coulomb term semi-analytically   ... done
One-Center Exchange (+SOO)                  ... done
Evaluating the spin-orbit operator          ... done
Total time for SOC: 64.487


           ************************************************************
           *        Program running with 72 parallel MPI-processes    *
           *              working on a shared directory               *
           ************************************************************
------------------------------------------------------------------------------
                                ORCA EPR/NMR CALCULATION
------------------------------------------------------------------------------

GBWName                      ... zfs.gbw
Electron density file        ... zfs.scfp
Spin density file            ... zfs.scfr
Spin-orbit integrals         ... zfs
Multiplicity                 ... 3
g-tensor                     ... 0
NMR chemical shifts          ... 0
D-tensor                     ... spin-spin and spin-orbit
D(SS)-algorithm              ... spin-density from UNOs
D(SOC)-algorithm             ... CP (=Coupled-perturbed)
Active orbitals for UNO spin density= 102 .. 103

Starting the spin-spin zero-field-splitting computation (UNO)...
                        ... done with spin-spin calculation

Starting the spin-orbit zero-field-splitting computation (CP)...
Transforming integrals                       ... Max(Pert)=   5.6120e-06
Warning: Perturbation too small - adjusting
Transforming integrals                       ... Max(Pert)=   6.1115e-05
Warning: Perturbation too small - adjusting
Transforming integrals                       ... Max(Pert)=   6.6554e-04
Warning: Perturbation too small - adjusting
Transforming integrals                       ... Max(Pert)=   7.2477e-03
done
    ... no HF exchange - skipping linear equations
ZFS-Tensor - using the prefactors
   -1/(4S**2) for same spin
    1/(2*S*(2*S-1)) for alpha->beta
    1/((S+1)*(2*S+1)) for beta->alpha
                        ... done with spin-orbit calculation

---------------------------
ZERO-FIELD-SPLITTING TENSOR
---------------------------

raw-matrix : 
   0.019970    -0.000274    -0.000004  
  -0.000274     0.019908     0.000016  
  -0.000004     0.000016     0.087144  

Tensor is right-handed
diagonalized D matrix : 
   0.019663     0.020215     0.087144  

   0.665973    -0.745976    -0.000067  
   0.745976     0.665973     0.000241  
  -0.000135    -0.000210     1.000000  


Direction X=1 Y=0 Z=2
D   =     0.067205  cm**-1
E/D =     0.004102

SPIN-SPIN-PART
                   0          1          2    
      0      -0.021870  -0.000270   0.000002
      1      -0.000270  -0.021923  -0.000002
      2       0.000002  -0.000002   0.043792
Exchange and Coulomb parts of SS (raw)
Coulomb
                   0          1          2    
      0      -0.011743   0.001953  -0.000046
      1       0.001953  -0.020436  -0.000010
      2      -0.000046  -0.000010   0.032180
Exchange
                   0          1          2    
      0      -0.010126  -0.002224   0.000048
      1      -0.002224  -0.001486   0.000008
      2       0.000048   0.000008   0.011612
One-, two-, three- and four-center SS contributions (raw)
One-Center            (AA|AA):
                   0          1          2    
      0      -0.001442   0.000162  -0.000079
      1       0.000162  -0.001605   0.000030
      2      -0.000079   0.000030   0.003047
Two-Center-Coulomb    (AA|BB):
                   0          1          2    
      0      -0.380840   0.046228   0.000856
      1       0.046228  -0.319461   0.000649
      2       0.000856   0.000649   0.700301
Two-Center-Exchange   (AB|BA):
                   0          1          2    
      0      -0.014528  -0.000993  -0.000055
      1      -0.000993  -0.014844  -0.000588
      2      -0.000055  -0.000588   0.029371
Two-Center-hybrid     (AA|AB):
                   0          1          2    
      0       0.001797  -0.000682   0.000681
      1      -0.000682   0.001154  -0.000107
      2       0.000681  -0.000107  -0.002951
Three-Center-Coulomb  (AA|BC):
                   0          1          2    
      0       0.657002  -0.081209   0.000779
      1      -0.081209   0.544691  -0.005566
      2       0.000779  -0.005566  -1.201694
Three-Center-Exchange (AB|AC):
                   0          1          2    
      0      -0.004685  -0.000362  -0.001334
      1      -0.000362  -0.003401   0.002103
      2      -0.001334   0.002103   0.008085
Four-Center           (AB|CD):
                   0          1          2    
      0      -0.279174   0.036585  -0.000845
      1       0.036585  -0.228458   0.003475
      2      -0.000845   0.003475   0.507632
ALPHA-PART
                   0          1          2    
      0      -0.113510  -0.000007  -0.000001
      1      -0.000007  -0.113506  -0.000009
      2      -0.000001  -0.000009  -0.108836
BETA-PART
                   0          1          2    
      0      -0.111414  -0.000015  -0.000008
      1      -0.000015  -0.111417  -0.000008
      2      -0.000008  -0.000008  -0.104867
ALPHA->BETA-PART
                   0          1          2    
      0       0.230152   0.000014   0.000000
      1       0.000014   0.230140   0.000035
      2       0.000000   0.000035   0.222840
BETA->ALPHA-PART
                   0          1          2    
      0       0.036612   0.000005   0.000003
      1       0.000005   0.036613   0.000001
      2       0.000003   0.000001   0.034215

Individual contributions (in cm**-1)
                                   D         E
SPIN-SPIN                  :   0.06569    0.00027
  Exchange vs Coulomb
  Coulomb                  :   0.04827   -0.00145
  Exchange                 :   0.01742    0.00172
  One through four center contributions:
  1-center                 :   0.00457   -0.00015
  2-center-Coulomb         :   1.05045   -0.04940
  2-center-Exchange        :   0.04406    0.00100
  2-center-Hybrid          :  -0.00443    0.00071
  3-center-Coulomb         :  -1.80254    0.08703
  3-center-Exchange        :   0.01213    0.00029
  4-center                 :   0.76145   -0.03922
SPIN-ORBIT                 :   0.00152    0.00000
SOMO->VMO  (alpha->alpha)  :   0.00467    0.00001
DOMO->SOMO (beta ->beta )  :   0.00655    0.00002
SOMO->SOMO (alpha->beta )  :  -0.00731   -0.00001
DOMO->VMO  (beta ->alpha)  :  -0.00240   -0.00001


Timings for individual modules:

Sum of individual times         ...      265.290 sec (=   4.421 min)
GTO integral calculation        ...       14.758 sec (=   0.246 min)   5.6 %
Spin-Orbit-Coupling Matrices    ...       64.477 sec (=   1.075 min)  24.3 %
SCF iterations                  ...       77.800 sec (=   1.297 min)  29.3 %
EPR/NMR calculation             ...      108.255 sec (=   1.804 min)  40.8 %
                             ****ORCA TERMINATED NORMALLY****
TOTAL RUN TIME: 0 days 0 hours 4 minutes 39 seconds 19 msec
