
     Program PWSCF v.6.1 (svn rev. 13369) starts on 10Feb2021 at 23: 1:15 

     This program is part of the open-source Quantum ESPRESSO suite
     for quantum simulation of materials; please cite
         "P. Giannozzi et al., J. Phys.:Condens. Matter 21 395502 (2009);
          URL http://www.quantum-espresso.org", 
     in publications or presentations arising from this work. More details at
     http://www.quantum-espresso.org/quote

     Parallel version (MPI), running on   160 processors
     K-points division:     npool     =       2
     R & G space division:  proc/nbgrp/npool/nimage =      80
     Reading input from scf.in
Warning: card &CELL ignored
Warning: card / ignored
Warning: card &IONS ignored
Warning: card / ignored

     Current dimensions of program PWSCF are:
     Max number of different atomic species (ntypx) = 10
     Max number of k-points (npk) = 120000
     Max angular momentum in pseudopotentials (lmaxx) =  3

     Subspace diagonalization in iterative solution of the eigenvalue problem:
     a serial algorithm will be used

 
     Parallelization info
     --------------------
     sticks:   dense  smooth     PW     G-vecs:    dense   smooth      PW
     Min         153     153     38                14461    14461    1806
     Max         154     154     39                14464    14464    1813
     Sum       12259   12259   3067              1156971  1156971  144701
 


     bravais-lattice index     =            0
     lattice parameter (alat)  =      28.4287  a.u.
     unit-cell volume          =   20997.3881 (a.u.)^3
     number of atoms/cell      =           72
     number of atomic types    =            3
     number of electrons       =       288.00 (up: 144.00, down: 144.00)
     number of Kohn-Sham states=          168
     kinetic-energy cutoff     =      55.0000  Ry
     charge density cutoff     =     220.0000  Ry
     convergence threshold     =      1.0E-08
     mixing beta               =       0.7000
     number of iterations used =            8  plain     mixing
     Exchange-correlation      = PBE ( 1  4  3  4 0 0)

     celldm(1)=  28.428666  celldm(2)=   0.000000  celldm(3)=   0.000000
     celldm(4)=   0.000000  celldm(5)=   0.000000  celldm(6)=   0.000000

     crystal axes: (cart. coord. in units of alat)
               a(1) = (   1.000000   0.000000   0.000000 )  
               a(2) = (  -0.499999   0.866026   0.000000 )  
               a(3) = (   0.000000   0.000000   1.055273 )  

     reciprocal axes: (cart. coord. in units 2 pi/alat)
               b(1) = (  1.000000  0.577349  0.000000 )  
               b(2) = (  0.000000  1.154700  0.000000 )  
               b(3) = (  0.000000  0.000000  0.947622 )  


     PseudoPot. # 1 for B  read from file:
     ~/pseudo-ONCV-proj/B_ONCV_PBE-1.0.upf
     MD5 check sum: Not computed, couldn't open file
     Pseudo is Norm-conserving, Zval =  3.0
     Generated using ONCVPSP code by D. R. Hamann
     Using radial grid of 1534 points,  4 beta functions with: 
                l(1) =   0
                l(2) =   0
                l(3) =   1
                l(4) =   1

     PseudoPot. # 2 for N  read from file:
     ~/pseudo-ONCV-proj/N_ONCV_PBE-1.0.upf
     MD5 check sum: Not computed, couldn't open file
     Pseudo is Norm-conserving, Zval =  5.0
     Generated using ONCVPSP code by D. R. Hamann
     Using radial grid of 1058 points,  4 beta functions with: 
                l(1) =   0
                l(2) =   0
                l(3) =   1
                l(4) =   1

     PseudoPot. # 3 for C  read from file:
     ~/pseudo-ONCV-proj/C_ONCV_PBE-1.0.upf
     MD5 check sum: Not computed, couldn't open file
     Pseudo is Norm-conserving, Zval =  4.0
     Generated using ONCVPSP code by D. R. Hamann
     Using radial grid of 1248 points,  4 beta functions with: 
                l(1) =   0
                l(2) =   0
                l(3) =   1
                l(4) =   1

     atomic species   valence    mass     pseudopotential
        B              3.00    10.81100     B ( 1.00)
        N              5.00    14.00674     N ( 1.00)
        C              4.00    12.01070     C ( 1.00)

     Starting magnetic structure 
     atomic species   magnetization
        B            1.000
        N            0.000
        C            0.000

      2 Sym. Ops. (no inversion) found


                                    s                        frac. trans.

      isym =  1     identity                                     

 cryst.   s( 1) = (     1          0          0      )
                  (     0          1          0      )
                  (     0          0          1      )

 cart.    s( 1) = (  1.0000000 -0.0000000  0.0000000 )
                  (  0.0000000  1.0000000  0.0000000 )
                  (  0.0000000  0.0000000  1.0000000 )


      isym =  2     inv. 180 deg rotation - cart. axis [0,0,1]   

 cryst.   s( 2) = (     1          0          0      )
                  (     0          1          0      )
                  (     0          0         -1      )

 cart.    s( 2) = (  1.0000000 -0.0000000  0.0000000 )
                  (  0.0000000  1.0000000  0.0000000 )
                  (  0.0000000  0.0000000 -1.0000000 )


   Cartesian axes

     site n.     atom                  positions (alat units)
         1           B   tau(   1) = (  -0.0001282   0.0960559   0.5276366  )
         2           B   tau(   2) = (  -0.0833010   0.2406024   0.5276366  )
         3           B   tau(   3) = (  -0.1666157   0.3849081   0.5276366  )
         4           B   tau(   4) = (  -0.2502099   0.5292114   0.5276366  )
         5           B   tau(   5) = (  -0.3332631   0.6735970   0.5276366  )
         6           B   tau(   6) = (  -0.4166124   0.8179627   0.5276366  )
         7           B   tau(   7) = (   0.1666548   0.0960360   0.5276366  )
         8           B   tau(   8) = (   0.0832360   0.2403532   0.5276366  )
         9           B   tau(   9) = (   0.0004964   0.3851866   0.5276366  )
        10           B   tau(  10) = (  -0.0835628   0.5292581   0.5276366  )
        11           B   tau(  11) = (  -0.1668355   0.6736596   0.5276366  )
        12           B   tau(  12) = (  -0.2500105   0.8179066   0.5276366  )
        13           B   tau(  13) = (   0.3334751   0.0959638   0.5276366  )
        14           B   tau(  14) = (   0.2504312   0.2395012   0.5276366  )
        15           B   tau(  15) = (   0.1678196   0.3833591   0.5276366  )
        16           B   tau(  16) = (   0.0825755   0.5310066   0.5276366  )
        17           B   tau(  17) = (  -0.0007029   0.6744795   0.5276366  )
        18           B   tau(  18) = (  -0.0834877   0.8181665   0.5276366  )
        19           B   tau(  19) = (   0.5000578   0.0962582   0.5276366  )
        20           B   tau(  20) = (   0.4164836   0.2408617   0.5276366  )
        21           B   tau(  21) = (   0.3322102   0.3851616   0.5276366  )
        22           B   tau(  22) = (   0.1663320   0.6724719   0.5276366  )
        23           B   tau(  23) = (   0.0835016   0.8176049   0.5276366  )
        24           B   tau(  24) = (   0.6666702   0.0961408   0.5276366  )
        25           B   tau(  25) = (   0.5832624   0.2406077   0.5276366  )
        26           B   tau(  26) = (   0.4997602   0.3850245   0.5276366  )
        27           B   tau(  27) = (   0.4166044   0.5300220   0.5276366  )
        28           B   tau(  28) = (   0.3339816   0.6731291   0.5276366  )
        29           B   tau(  29) = (   0.2499884   0.8176431   0.5276366  )
        30           B   tau(  30) = (   0.8332616   0.0961362   0.5276366  )
        31           B   tau(  31) = (   0.7499642   0.2405418   0.5276366  )
        32           B   tau(  32) = (   0.6665544   0.3848824   0.5276366  )
        33           B   tau(  33) = (   0.5830545   0.5292652   0.5276366  )
        34           B   tau(  34) = (   0.5004934   0.6738600   0.5276366  )
        35           B   tau(  35) = (   0.4165515   0.8176576   0.5276366  )
        36           N   tau(  36) = (   0.0832461   0.0479686   0.5276366  )
        37           N   tau(  37) = (  -0.0001726   0.1921228   0.5276366  )
        38           N   tau(  38) = (  -0.0831901   0.3368701   0.5276366  )
        39           N   tau(  39) = (  -0.1670359   0.4811392   0.5276366  )
        40           N   tau(  40) = (  -0.2501674   0.6254593   0.5276366  )
        41           N   tau(  41) = (  -0.3333877   0.7697688   0.5276366  )
        42           N   tau(  42) = (   0.2500456   0.0479917   0.5276366  )
        43           N   tau(  43) = (   0.1667306   0.1920060   0.5276366  )
        44           N   tau(  44) = (   0.0835364   0.3361716   0.5276366  )
        45           N   tau(  45) = (  -0.0004317   0.4816089   0.5276366  )
        46           N   tau(  46) = (  -0.0836852   0.6257402   0.5276366  )
        47           N   tau(  47) = (  -0.1667474   0.7699004   0.5276366  )
        48           N   tau(  48) = (   0.4167807   0.0481782   0.5276366  )
        49           N   tau(  49) = (   0.3337647   0.1919536   0.5276366  )
        50           N   tau(  50) = (   0.2508262   0.3351641   0.5276366  )
        51           N   tau(  51) = (   0.0823409   0.6269899   0.5276366  )
        52           N   tau(  52) = (  -0.0002134   0.7704222   0.5276366  )
        53           N   tau(  53) = (   0.5834875   0.0479245   0.5276366  )
        54           N   tau(  54) = (   0.4999146   0.1926774   0.5276366  )
        55           N   tau(  55) = (   0.4161189   0.3376673   0.5276366  )
        56           N   tau(  56) = (   0.3318158   0.4833846   0.5276366  )
        57           N   tau(  57) = (   0.2511982   0.6230186   0.5276366  )
        58           N   tau(  58) = (   0.1671552   0.7688862   0.5276366  )
        59           N   tau(  59) = (   0.7499584   0.0478133   0.5276366  )
        60           N   tau(  60) = (   0.6665845   0.1924024   0.5276366  )
        61           N   tau(  61) = (   0.5830539   0.3369011   0.5276366  )
        62           N   tau(  62) = (   0.4992971   0.4812846   0.5276366  )
        63           N   tau(  63) = (   0.4171596   0.6257472   0.5276366  )
        64           N   tau(  64) = (   0.3331204   0.7691118   0.5276366  )
        65           N   tau(  65) = (   0.9164608   0.0477726   0.5276366  )
        66           N   tau(  66) = (   0.8332490   0.1923551   0.5276366  )
        67           N   tau(  67) = (   0.7498759   0.3367620   0.5276366  )
        68           N   tau(  68) = (   0.6662700   0.4811169   0.5276366  )
        69           N   tau(  69) = (   0.5833527   0.6254577   0.5276366  )
        70           N   tau(  70) = (   0.5000056   0.7698195   0.5276366  )
        71           C   tau(  71) = (   0.2506798   0.5296300   0.5276366  )
        72           C   tau(  72) = (   0.1703357   0.4832434   0.5276366  )

   Crystallographic axes

     site n.     atom                  positions (cryst. coord.)
         1           B   tau(   1) = (  0.0553296  0.1109157  0.5000000  )
         2           B   tau(   2) = (  0.0556105  0.2778235  0.5000000  )
         3           B   tau(   3) = (  0.0556105  0.4444533  0.5000000  )
         4           B   tau(   4) = (  0.0553296  0.6110802  0.5000000  )
         5           B   tau(   5) = (  0.0556373  0.7778023  0.5000000  )
         6           B   tau(   6) = (  0.0556373  0.9445013  0.5000000  )
         7           B   tau(   7) = (  0.2221010  0.1108927  0.5000000  )
         8           B   tau(   8) = (  0.2220036  0.2775358  0.5000000  )
         9           B   tau(   9) = (  0.2228834  0.4447749  0.5000000  )
        10           B   tau(  10) = (  0.2220036  0.6111341  0.5000000  )
        11           B   tau(  11) = (  0.2221010  0.7778746  0.5000000  )
        12           B   tau(  12) = (  0.2222068  0.9444366  0.5000000  )
        13           B   tau(  13) = (  0.3888797  0.1108094  0.5000000  )
        14           B   tau(  14) = (  0.3887069  0.2765520  0.5000000  )
        15           B   tau(  15) = (  0.3891515  0.4426646  0.5000000  )
        16           B   tau(  16) = (  0.3891515  0.6131532  0.5000000  )
        17           B   tau(  17) = (  0.3887069  0.7788213  0.5000000  )
        18           B   tau(  18) = (  0.3888797  0.9447366  0.5000000  )
        19           B   tau(  19) = (  0.5556324  0.1111494  0.5000000  )
        20           B   tau(  20) = (  0.5555448  0.2781229  0.5000000  )
        21           B   tau(  21) = (  0.5545828  0.4447460  0.5000000  )
        22           B   tau(  22) = (  0.5545828  0.7765031  0.5000000  )
        23           B   tau(  23) = (  0.5555448  0.9440882  0.5000000  )
        24           B   tau(  24) = (  0.7221770  0.1110137  0.5000000  )
        25           B   tau(  25) = (  0.7221770  0.2778296  0.5000000  )
        26           B   tau(  26) = (  0.7220536  0.4445877  0.5000000  )
        27           B   tau(  27) = (  0.7226119  0.6120162  0.5000000  )
        28           B   tau(  28) = (  0.7226119  0.7772620  0.5000000  )
        29           B   tau(  29) = (  0.7220535  0.9441322  0.5000000  )
        30           B   tau(  30) = (  0.8887657  0.1110085  0.5000000  )
        31           B   tau(  31) = (  0.8888407  0.2777535  0.5000000  )
        32           B   tau(  32) = (  0.8887658  0.4444236  0.5000000  )
        33           B   tau(  33) = (  0.8886251  0.6111424  0.5000000  )
        34           B   tau(  34) = (  0.8895457  0.7781060  0.5000000  )
        35           B   tau(  35) = (  0.8886251  0.9441490  0.5000000  )
        36           N   tau(  36) = (  0.1109407  0.0553893  0.5000000  )
        37           N   tau(  37) = (  0.1107493  0.2218442  0.5000000  )
        38           N   tau(  38) = (  0.1113014  0.3889839  0.5000000  )
        39           N   tau(  39) = (  0.1107493  0.5555714  0.5000000  )
        40           N   tau(  40) = (  0.1109407  0.7222177  0.5000000  )
        41           N   tau(  41) = (  0.1110373  0.8888518  0.5000000  )
        42           N   tau(  42) = (  0.2777536  0.0554161  0.5000000  )
        43           N   tau(  43) = (  0.2775850  0.2217093  0.5000000  )
        44           N   tau(  44) = (  0.2776246  0.3881772  0.5000000  )
        45           N   tau(  45) = (  0.2776246  0.5561137  0.5000000  )
        46           N   tau(  46) = (  0.2775851  0.7225420  0.5000000  )
        47           N   tau(  47) = (  0.2777536  0.8890038  0.5000000  )
        48           N   tau(  48) = (  0.4445963  0.0556313  0.5000000  )
        49           N   tau(  49) = (  0.4445889  0.2216488  0.5000000  )
        50           N   tau(  50) = (  0.4443327  0.3870139  0.5000000  )
        51           N   tau(  51) = (  0.4443327  0.7239851  0.5000000  )
        52           N   tau(  52) = (  0.4445889  0.8896064  0.5000000  )
        53           N   tau(  53) = (  0.6111567  0.0553384  0.5000000  )
        54           N   tau(  54) = (  0.6111567  0.2224846  0.5000000  )
        55           N   tau(  55) = (  0.6110706  0.3899043  0.5000000  )
        56           N   tau(  56) = (  0.6108973  0.5581641  0.5000000  )
        57           N   tau(  57) = (  0.6108972  0.7193995  0.5000000  )
        58           N   tau(  58) = (  0.6110706  0.8878326  0.5000000  )
        59           N   tau(  59) = (  0.7775633  0.0552100  0.5000000  )
        60           N   tau(  60) = (  0.7776678  0.2221670  0.5000000  )
        61           N   tau(  61) = (  0.7775633  0.3890196  0.5000000  )
        62           N   tau(  62) = (  0.7771661  0.5557392  0.5000000  )
        63           N   tau(  63) = (  0.7784339  0.7225501  0.5000000  )
        64           N   tau(  64) = (  0.7771661  0.8880931  0.5000000  )
        65           N   tau(  65) = (  0.9440423  0.0551630  0.5000000  )
        66           N   tau(  66) = (  0.9443050  0.2221123  0.5000000  )
        67           N   tau(  67) = (  0.9443050  0.3888590  0.5000000  )
        68           N   tau(  68) = (  0.9440423  0.5555456  0.5000000  )
        69           N   tau(  69) = (  0.9444599  0.7222158  0.5000000  )
        70           N   tau(  70) = (  0.9444599  0.8889103  0.5000000  )
        71           C   tau(  71) = (  0.5564610  0.6115637  0.5000000  )
        72           C   tau(  72) = (  0.4493357  0.5580010  0.5000000  )

     number of k points=     1
                       cart. coord. in units 2pi/alat
        k(    1) = (   0.0000000   0.0000000   0.0000000), wk =   1.0000000

                       cryst. coord.
        k(    1) = (   0.0000000   0.0000000   0.0000000), wk =   1.0000000

     Dense  grid:  1156971 G-vectors     FFT dimensions: ( 135, 135, 144)

     Occupations read from input 

      Spin-up

        1.0000   1.0000   1.0000   1.0000   1.0000   1.0000   1.0000   1.0000
        1.0000   1.0000   1.0000   1.0000   1.0000   1.0000   1.0000   1.0000
        1.0000   1.0000   1.0000   1.0000   1.0000   1.0000   1.0000   1.0000
        1.0000   1.0000   1.0000   1.0000   1.0000   1.0000   1.0000   1.0000
        1.0000   1.0000   1.0000   1.0000   1.0000   1.0000   1.0000   1.0000
        1.0000   1.0000   1.0000   1.0000   1.0000   1.0000   1.0000   1.0000
        1.0000   1.0000   1.0000   1.0000   1.0000   1.0000   1.0000   1.0000
        1.0000   1.0000   1.0000   1.0000   1.0000   1.0000   1.0000   1.0000
        1.0000   1.0000   1.0000   1.0000   1.0000   1.0000   1.0000   1.0000
        1.0000   1.0000   1.0000   1.0000   1.0000   1.0000   1.0000   1.0000
        1.0000   1.0000   1.0000   1.0000   1.0000   1.0000   1.0000   1.0000
        1.0000   1.0000   1.0000   1.0000   1.0000   1.0000   1.0000   1.0000
        1.0000   1.0000   1.0000   1.0000   1.0000   1.0000   1.0000   1.0000
        1.0000   1.0000   1.0000   1.0000   1.0000   1.0000   1.0000   1.0000
        1.0000   1.0000   1.0000   1.0000   1.0000   1.0000   1.0000   1.0000
        1.0000   1.0000   1.0000   1.0000   1.0000   1.0000   1.0000   1.0000
        1.0000   1.0000   1.0000   1.0000   1.0000   1.0000   1.0000   1.0000
        1.0000   1.0000   1.0000   1.0000   1.0000   1.0000   1.0000   0.0000
        1.0000   0.0000   0.0000   0.0000   0.0000   0.0000   0.0000   0.0000
        0.0000   0.0000   0.0000   0.0000   0.0000   0.0000   0.0000   0.0000
        0.0000   0.0000   0.0000   0.0000   0.0000   0.0000   0.0000   0.0000

      Spin-down

        1.0000   1.0000   1.0000   1.0000   1.0000   1.0000   1.0000   1.0000
        1.0000   1.0000   1.0000   1.0000   1.0000   1.0000   1.0000   1.0000
        1.0000   1.0000   1.0000   1.0000   1.0000   1.0000   1.0000   1.0000
        1.0000   1.0000   1.0000   1.0000   1.0000   1.0000   1.0000   1.0000
        1.0000   1.0000   1.0000   1.0000   1.0000   1.0000   1.0000   1.0000
        1.0000   1.0000   1.0000   1.0000   1.0000   1.0000   1.0000   1.0000
        1.0000   1.0000   1.0000   1.0000   1.0000   1.0000   1.0000   1.0000
        1.0000   1.0000   1.0000   1.0000   1.0000   1.0000   1.0000   1.0000
        1.0000   1.0000   1.0000   1.0000   1.0000   1.0000   1.0000   1.0000
        1.0000   1.0000   1.0000   1.0000   1.0000   1.0000   1.0000   1.0000
        1.0000   1.0000   1.0000   1.0000   1.0000   1.0000   1.0000   1.0000
        1.0000   1.0000   1.0000   1.0000   1.0000   1.0000   1.0000   1.0000
        1.0000   1.0000   1.0000   1.0000   1.0000   1.0000   1.0000   1.0000
        1.0000   1.0000   1.0000   1.0000   1.0000   1.0000   1.0000   1.0000
        1.0000   1.0000   1.0000   1.0000   1.0000   1.0000   1.0000   1.0000
        1.0000   1.0000   1.0000   1.0000   1.0000   1.0000   1.0000   1.0000
        1.0000   1.0000   1.0000   1.0000   1.0000   1.0000   1.0000   1.0000
        1.0000   1.0000   1.0000   1.0000   1.0000   1.0000   1.0000   1.0000
        0.0000   0.0000   0.0000   0.0000   0.0000   0.0000   0.0000   0.0000
        0.0000   0.0000   0.0000   0.0000   0.0000   0.0000   0.0000   0.0000
        0.0000   0.0000   0.0000   0.0000   0.0000   0.0000   0.0000   0.0000

     Estimated max dynamical RAM per process >      68.84MB

     Estimated total allocated dynamical RAM >   11014.86MB
     Generating pointlists ...
     new r_m :   0.0394 (alat units)  1.1201 (a.u.) for type    1
     new r_m :   0.0385 (alat units)  1.0952 (a.u.) for type    2
     new r_m :   0.0383 (alat units)  1.0879 (a.u.) for type    3

     Initial potential from superposition of free atoms
     Check: negative starting charge=(component1):   -0.001386
     Check: negative starting charge=(component2):   -0.001913

     starting charge  287.99093, renormalised to  288.00000

     negative rho (up, down):  1.386E-03 1.913E-03
     Starting wfc are  288 randomized atomic wfcs

     total cpu time spent up to now is        3.0 secs

     per-process dynamical memory:    91.4 Mb

     Self-consistent Calculation

     iteration #  1     ecut=    55.00 Ry     beta=0.70
     Davidson diagonalization with overlap
     ethr =  1.00E-02,  avg # of iterations =  2.5

     negative rho (up, down):  1.552E-04 3.038E-04

     total cpu time spent up to now is        4.4 secs

     total energy              =    -916.50654651 Ry
     Harris-Foulkes estimate   =    -922.43528201 Ry
     estimated scf accuracy    <      16.97224671 Ry

     total magnetization       =    -0.00 Bohr mag/cell
     absolute magnetization    =    19.41 Bohr mag/cell

     iteration #  2     ecut=    55.00 Ry     beta=0.70
     Davidson diagonalization with overlap
     ethr =  5.89E-03,  avg # of iterations =  3.0

     negative rho (up, down):  6.518E-05 1.189E-04

     total cpu time spent up to now is        5.8 secs

     total energy              =    -921.20182887 Ry
     Harris-Foulkes estimate   =    -925.72468860 Ry
     estimated scf accuracy    <      10.41311158 Ry

     total magnetization       =    -0.00 Bohr mag/cell
     absolute magnetization    =    15.04 Bohr mag/cell

     iteration #  3     ecut=    55.00 Ry     beta=0.70
     Davidson diagonalization with overlap
     ethr =  3.62E-03,  avg # of iterations =  3.0

     negative rho (up, down):  1.812E-05 3.495E-05

     total cpu time spent up to now is        7.1 secs

     total energy              =    -923.07749034 Ry
     Harris-Foulkes estimate   =    -923.39700105 Ry
     estimated scf accuracy    <       0.96036698 Ry

     total magnetization       =    -0.00 Bohr mag/cell
     absolute magnetization    =    10.21 Bohr mag/cell

     iteration #  4     ecut=    55.00 Ry     beta=0.70
     Davidson diagonalization with overlap
     ethr =  3.33E-04,  avg # of iterations = 16.0

     negative rho (up, down):  4.592E-09 1.075E-08

     total cpu time spent up to now is       10.7 secs

     total energy              =    -923.49419808 Ry
     Harris-Foulkes estimate   =    -923.76980880 Ry
     estimated scf accuracy    <       1.22153035 Ry

     total magnetization       =    -0.00 Bohr mag/cell
     absolute magnetization    =     8.00 Bohr mag/cell

     iteration #  5     ecut=    55.00 Ry     beta=0.70
     Davidson diagonalization with overlap
     ethr =  3.33E-04,  avg # of iterations =  8.0

     negative rho (up, down):  6.731E-09 1.296E-08

     total cpu time spent up to now is       12.3 secs

     total energy              =    -923.65192428 Ry
     Harris-Foulkes estimate   =    -923.65277613 Ry
     estimated scf accuracy    <       0.03999199 Ry

     total magnetization       =    -0.00 Bohr mag/cell
     absolute magnetization    =     5.57 Bohr mag/cell

     iteration #  6     ecut=    55.00 Ry     beta=0.70
     Davidson diagonalization with overlap
     ethr =  1.39E-05,  avg # of iterations = 14.0

     total cpu time spent up to now is       15.7 secs

     total energy              =    -923.67734689 Ry
     Harris-Foulkes estimate   =    -923.66440510 Ry
     estimated scf accuracy    <       0.00901641 Ry

     total magnetization       =     0.00 Bohr mag/cell
     absolute magnetization    =     4.55 Bohr mag/cell

     iteration #  7     ecut=    55.00 Ry     beta=0.70
     Davidson diagonalization with overlap
     ethr =  3.13E-06,  avg # of iterations =  4.5

     total cpu time spent up to now is       17.7 secs

     total energy              =    -923.68714212 Ry
     Harris-Foulkes estimate   =    -923.68484981 Ry
     estimated scf accuracy    <       0.00446349 Ry

     total magnetization       =     0.00 Bohr mag/cell
     absolute magnetization    =     3.17 Bohr mag/cell

     iteration #  8     ecut=    55.00 Ry     beta=0.70
     Davidson diagonalization with overlap
     ethr =  1.55E-06,  avg # of iterations =  3.5

     total cpu time spent up to now is       19.2 secs

     total energy              =    -923.68952787 Ry
     Harris-Foulkes estimate   =    -923.68883656 Ry
     estimated scf accuracy    <       0.00112249 Ry

     total magnetization       =     0.00 Bohr mag/cell
     absolute magnetization    =     2.52 Bohr mag/cell

     iteration #  9     ecut=    55.00 Ry     beta=0.70
     Davidson diagonalization with overlap
     ethr =  3.90E-07,  avg # of iterations =  3.5

     total cpu time spent up to now is       20.9 secs

     total energy              =    -923.69033055 Ry
     Harris-Foulkes estimate   =    -923.69026516 Ry
     estimated scf accuracy    <       0.00025378 Ry

     total magnetization       =     0.00 Bohr mag/cell
     absolute magnetization    =     2.06 Bohr mag/cell

     iteration # 10     ecut=    55.00 Ry     beta=0.70
     Davidson diagonalization with overlap
     ethr =  8.81E-08,  avg # of iterations =  3.5

     total cpu time spent up to now is       22.4 secs

     total energy              =    -923.69049594 Ry
     Harris-Foulkes estimate   =    -923.69051068 Ry
     estimated scf accuracy    <       0.00006101 Ry

     total magnetization       =     0.00 Bohr mag/cell
     absolute magnetization    =     1.86 Bohr mag/cell

     iteration # 11     ecut=    55.00 Ry     beta=0.70
     Davidson diagonalization with overlap
     ethr =  2.12E-08,  avg # of iterations =  3.0

     total cpu time spent up to now is       23.8 secs

     total energy              =    -923.69052027 Ry
     Harris-Foulkes estimate   =    -923.69052051 Ry
     estimated scf accuracy    <       0.00000244 Ry

     total magnetization       =     0.00 Bohr mag/cell
     absolute magnetization    =     1.80 Bohr mag/cell

     iteration # 12     ecut=    55.00 Ry     beta=0.70
     Davidson diagonalization with overlap
     ethr =  8.48E-10,  avg # of iterations =  3.5

     total cpu time spent up to now is       25.3 secs

     total energy              =    -923.69052176 Ry
     Harris-Foulkes estimate   =    -923.69052190 Ry
     estimated scf accuracy    <       0.00000087 Ry

     total magnetization       =     0.00 Bohr mag/cell
     absolute magnetization    =     1.79 Bohr mag/cell

     iteration # 13     ecut=    55.00 Ry     beta=0.70
     Davidson diagonalization with overlap
     ethr =  3.03E-10,  avg # of iterations =  3.5

     total cpu time spent up to now is       26.6 secs

     total energy              =    -923.69052211 Ry
     Harris-Foulkes estimate   =    -923.69052202 Ry
     estimated scf accuracy    <       0.00000009 Ry

     total magnetization       =    -0.00 Bohr mag/cell
     absolute magnetization    =     1.79 Bohr mag/cell

     iteration # 14     ecut=    55.00 Ry     beta=0.70
     Davidson diagonalization with overlap
     ethr =  3.06E-11,  avg # of iterations =  3.5

     total cpu time spent up to now is       28.1 secs

     total energy              =    -923.69052216 Ry
     Harris-Foulkes estimate   =    -923.69052216 Ry
     estimated scf accuracy    <       0.00000003 Ry

     total magnetization       =    -0.00 Bohr mag/cell
     absolute magnetization    =     1.79 Bohr mag/cell

     iteration # 15     ecut=    55.00 Ry     beta=0.70
     Davidson diagonalization with overlap
     ethr =  1.16E-11,  avg # of iterations =  3.5

     total cpu time spent up to now is       29.5 secs

     total energy              =    -923.69052218 Ry
     Harris-Foulkes estimate   =    -923.69052217 Ry
     estimated scf accuracy    <       0.00000001 Ry

     total magnetization       =     0.00 Bohr mag/cell
     absolute magnetization    =     1.79 Bohr mag/cell

     iteration # 16     ecut=    55.00 Ry     beta=0.70
     Davidson diagonalization with overlap
     ethr =  3.56E-12,  avg # of iterations =  4.0
 
     Magnetic moment per site:
     atom:    1    charge:    0.8638    magn:    0.0005    constr:    0.0000
     atom:    2    charge:    0.8629    magn:    0.0022    constr:    0.0000
     atom:    3    charge:    0.8629    magn:    0.0022    constr:    0.0000
     atom:    4    charge:    0.8638    magn:    0.0005    constr:    0.0000
     atom:    5    charge:    0.8657    magn:    0.0015    constr:    0.0000
     atom:    6    charge:    0.8657    magn:    0.0015    constr:    0.0000
     atom:    7    charge:    0.8682    magn:    0.0019    constr:    0.0000
     atom:    8    charge:    0.8650    magn:    0.0018    constr:    0.0000
     atom:    9    charge:    0.8617    magn:    0.0077    constr:    0.0000
     atom:   10    charge:    0.8650    magn:    0.0018    constr:    0.0000
     atom:   11    charge:    0.8682    magn:    0.0019    constr:    0.0000
     atom:   12    charge:    0.8668    magn:    0.0059    constr:    0.0000
     atom:   13    charge:    0.8672    magn:    0.0018    constr:    0.0000
     atom:   14    charge:    0.8721    magn:    0.0070    constr:    0.0000
     atom:   15    charge:    0.8777    magn:    0.0231    constr:    0.0000
     atom:   16    charge:    0.8777    magn:    0.0230    constr:    0.0000
     atom:   17    charge:    0.8721    magn:    0.0070    constr:    0.0000
     atom:   18    charge:    0.8672    magn:    0.0018    constr:    0.0000
     atom:   19    charge:    0.8640    magn:    0.0014    constr:    0.0000
     atom:   20    charge:    0.8600    magn:    0.0002    constr:    0.0000
     atom:   21    charge:    0.8571    magn:    0.0038    constr:    0.0000
     atom:   22    charge:    0.8571    magn:    0.0038    constr:    0.0000
     atom:   23    charge:    0.8600    magn:    0.0002    constr:    0.0000
     atom:   24    charge:    0.8642    magn:    0.0017    constr:    0.0000
     atom:   25    charge:    0.8642    magn:    0.0017    constr:    0.0000
     atom:   26    charge:    0.8653    magn:    0.0032    constr:    0.0000
     atom:   27    charge:    0.8692    magn:    0.0128    constr:    0.0000
     atom:   28    charge:    0.8692    magn:    0.0128    constr:    0.0000
     atom:   29    charge:    0.8653    magn:    0.0032    constr:    0.0000
     atom:   30    charge:    0.8656    magn:    0.0007    constr:    0.0000
     atom:   31    charge:    0.8650    magn:    0.0054    constr:    0.0000
     atom:   32    charge:    0.8656    magn:    0.0007    constr:    0.0000
     atom:   33    charge:    0.8626    magn:    0.0008    constr:    0.0000
     atom:   34    charge:    0.8710    magn:    0.0052    constr:    0.0000
     atom:   35    charge:    0.8626    magn:    0.0008    constr:    0.0000
     atom:   36    charge:    2.7137    magn:   -0.0004    constr:    0.0000
     atom:   37    charge:    2.7096    magn:   -0.0010    constr:    0.0000
     atom:   38    charge:    2.7081    magn:   -0.0145    constr:    0.0000
     atom:   39    charge:    2.7096    magn:   -0.0010    constr:    0.0000
     atom:   40    charge:    2.7137    magn:   -0.0004    constr:    0.0000
     atom:   41    charge:    2.7086    magn:   -0.0104    constr:    0.0000
     atom:   42    charge:    2.7129    magn:   -0.0040    constr:    0.0000
     atom:   43    charge:    2.7121    magn:   -0.0104    constr:    0.0000
     atom:   44    charge:    2.7064    magn:   -0.0202    constr:    0.0000
     atom:   45    charge:    2.7064    magn:   -0.0202    constr:    0.0000
     atom:   46    charge:    2.7121    magn:   -0.0105    constr:    0.0000
     atom:   47    charge:    2.7129    magn:   -0.0040    constr:    0.0000
     atom:   48    charge:    2.7153    magn:   -0.0049    constr:    0.0000
     atom:   49    charge:    2.7134    magn:   -0.0005    constr:    0.0000
     atom:   50    charge:    2.7179    magn:   -0.0010    constr:    0.0000
     atom:   51    charge:    2.7179    magn:   -0.0010    constr:    0.0000
     atom:   52    charge:    2.7134    magn:   -0.0005    constr:    0.0000
     atom:   53    charge:    2.7110    magn:   -0.0028    constr:    0.0000
     atom:   54    charge:    2.7110    magn:   -0.0028    constr:    0.0000
     atom:   55    charge:    2.7065    magn:   -0.0173    constr:    0.0000
     atom:   56    charge:    2.6831    magn:   -0.0442    constr:    0.0000
     atom:   57    charge:    2.6831    magn:   -0.0442    constr:    0.0000
     atom:   58    charge:    2.7065    magn:   -0.0173    constr:    0.0000
     atom:   59    charge:    2.7116    magn:   -0.0040    constr:    0.0000
     atom:   60    charge:    2.7075    magn:   -0.0098    constr:    0.0000
     atom:   61    charge:    2.7116    magn:   -0.0040    constr:    0.0000
     atom:   62    charge:    2.7082    magn:   -0.0015    constr:    0.0000
     atom:   63    charge:    2.7171    magn:   -0.0196    constr:    0.0000
     atom:   64    charge:    2.7082    magn:   -0.0015    constr:    0.0000
     atom:   65    charge:    2.7118    magn:   -0.0040    constr:    0.0000
     atom:   66    charge:    2.7115    magn:   -0.0032    constr:    0.0000
     atom:   67    charge:    2.7115    magn:   -0.0032    constr:    0.0000
     atom:   68    charge:    2.7118    magn:   -0.0040    constr:    0.0000
     atom:   69    charge:    2.7141    magn:   -0.0038    constr:    0.0000
     atom:   70    charge:    2.7141    magn:   -0.0038    constr:    0.0000
     atom:   71    charge:    1.6080    magn:    0.1741    constr:    0.0000
     atom:   72    charge:    1.6429    magn:   -0.1451    constr:    0.0000

     total cpu time spent up to now is       31.0 secs

     End of self-consistent calculation

 ------ SPIN UP ------------


          k = 0.0000 0.0000 0.0000 (144701 PWs)   bands (ev):

   -21.8754 -21.1788 -20.8471 -20.8103 -20.7593 -20.7323 -20.6312 -20.1214
   -19.9390 -19.8214 -19.7947 -19.7714 -19.6685 -19.4988 -19.4692 -19.3878
   -19.3383 -19.3199 -19.1061 -18.7167 -18.5019 -18.4122 -18.3708 -18.3467
   -18.3446 -18.3175 -18.3149 -18.2826 -18.2776 -18.2758 -18.2429 -18.1699
   -18.1444 -17.7546 -17.6560 -15.5972 -13.1631 -12.5491 -12.5480 -12.2350
   -12.0116 -11.8048 -11.7823 -11.7651 -11.7562 -11.7164 -11.7008 -11.6984
   -11.6796 -11.6084 -11.5921 -11.5766 -11.5257 -11.0226 -10.8029 -10.6795
   -10.6281 -10.5779 -10.5143 -10.4362 -10.4134  -9.6190  -9.4465  -9.2357
    -9.2246  -9.1909  -9.1745  -9.1364  -9.1230  -9.0507  -9.0403  -9.0248
    -9.0014  -8.9972  -8.9793  -8.9782  -8.9596  -8.9206  -8.8074  -8.6363
    -8.4976  -8.2260  -8.2096  -8.1654  -8.1335  -8.0531  -8.0301  -7.8599
    -7.8344  -7.7279  -7.7020  -7.6510  -7.6378  -7.5446  -7.5231  -7.3972
    -7.3229  -7.3151  -7.2630  -7.2455  -7.1416  -7.1178  -7.0336  -7.0201
    -7.0009  -6.9691  -6.8817  -6.8552  -6.8547  -6.8356  -6.8097  -6.7095
    -6.5197  -6.3885  -6.2702  -6.2509  -6.2182  -6.1921  -6.0420  -6.0147
    -5.9602  -5.9084  -5.9036  -5.8587  -5.4345  -5.0110  -4.9751  -4.9159
    -4.7779  -4.7631  -4.7432  -4.7307  -4.7123  -4.7050  -4.6749  -4.6685
    -4.6643  -4.6608  -4.5929  -4.5438  -4.4849  -3.9495  -3.6517  -3.0546
     0.2149   1.0130   1.0560   1.0953   1.1524   1.1543   1.4259   1.7144
     1.7692   1.7725   1.8001   1.8135   1.8501   1.8560   1.8682   1.8818
     1.9056   1.9095   1.9300   1.9539   1.9616   1.9631   1.9737   2.0273

     occupation numbers 
     1.0000   1.0000   1.0000   1.0000   1.0000   1.0000   1.0000   1.0000
     1.0000   1.0000   1.0000   1.0000   1.0000   1.0000   1.0000   1.0000
     1.0000   1.0000   1.0000   1.0000   1.0000   1.0000   1.0000   1.0000
     1.0000   1.0000   1.0000   1.0000   1.0000   1.0000   1.0000   1.0000
     1.0000   1.0000   1.0000   1.0000   1.0000   1.0000   1.0000   1.0000
     1.0000   1.0000   1.0000   1.0000   1.0000   1.0000   1.0000   1.0000
     1.0000   1.0000   1.0000   1.0000   1.0000   1.0000   1.0000   1.0000
     1.0000   1.0000   1.0000   1.0000   1.0000   1.0000   1.0000   1.0000
     1.0000   1.0000   1.0000   1.0000   1.0000   1.0000   1.0000   1.0000
     1.0000   1.0000   1.0000   1.0000   1.0000   1.0000   1.0000   1.0000
     1.0000   1.0000   1.0000   1.0000   1.0000   1.0000   1.0000   1.0000
     1.0000   1.0000   1.0000   1.0000   1.0000   1.0000   1.0000   1.0000
     1.0000   1.0000   1.0000   1.0000   1.0000   1.0000   1.0000   1.0000
     1.0000   1.0000   1.0000   1.0000   1.0000   1.0000   1.0000   1.0000
     1.0000   1.0000   1.0000   1.0000   1.0000   1.0000   1.0000   1.0000
     1.0000   1.0000   1.0000   1.0000   1.0000   1.0000   1.0000   1.0000
     1.0000   1.0000   1.0000   1.0000   1.0000   1.0000   1.0000   1.0000
     1.0000   1.0000   1.0000   1.0000   1.0000   1.0000   1.0000   0.0000
     1.0000   0.0000   0.0000   0.0000   0.0000   0.0000   0.0000   0.0000
     0.0000   0.0000   0.0000   0.0000   0.0000   0.0000   0.0000   0.0000
     0.0000   0.0000   0.0000   0.0000   0.0000   0.0000   0.0000   0.0000

 ------ SPIN DOWN ----------


          k = 0.0000 0.0000 0.0000 (144701 PWs)   bands (ev):

   -21.8294 -21.1783 -20.8578 -20.8168 -20.7630 -20.7369 -20.6397 -20.1192
   -19.9626 -19.8365 -19.8000 -19.7759 -19.6762 -19.5014 -19.4833 -19.4094
   -19.3416 -19.3243 -19.1228 -18.7465 -18.5103 -18.4237 -18.3823 -18.3596
   -18.3502 -18.3260 -18.3246 -18.2894 -18.2855 -18.2836 -18.2506 -18.1888
   -18.1665 -17.7721 -17.6676 -15.7884 -13.1165 -12.5456 -12.5378 -12.2204
   -11.9976 -11.8012 -11.7797 -11.7623 -11.7555 -11.7160 -11.6986 -11.6967
   -11.6732 -11.6233 -11.5925 -11.5699 -11.5289 -11.0117 -10.7968 -10.6747
   -10.6217 -10.5761 -10.5099 -10.4513 -10.4098  -9.6040  -9.4419  -9.2341
    -9.2291  -9.1964  -9.1786  -9.1365  -9.1207  -9.0505  -9.0390  -9.0313
    -9.0010  -8.9967  -8.9783  -8.9586  -8.9447  -8.9170  -8.8178  -8.6368
    -8.4287  -8.2327  -8.2144  -8.1634  -8.1334  -8.0508  -8.0362  -7.8631
    -7.8387  -7.7282  -7.6989  -7.6510  -7.6395  -7.5478  -7.5268  -7.3982
    -7.3253  -7.3173  -7.2660  -7.2516  -7.1480  -7.0468  -7.0374  -7.0225
    -7.0102  -6.9711  -6.9011  -6.8702  -6.8672  -6.8388  -6.8074  -6.7270
    -6.5345  -6.3592  -6.2898  -6.2851  -6.2119  -6.1865  -6.0667  -6.0448
    -5.9676  -5.9117  -5.9055  -5.8733  -5.4567  -5.0200  -5.0040  -4.9291
    -4.8005  -4.7747  -4.7613  -4.7397  -4.7270  -4.7247  -4.7213  -4.6896
    -4.6710  -4.6697  -4.6119  -4.5713  -4.5171  -4.1132  -3.6826  -3.4599
     0.7473   1.0710   1.0785   1.1330   1.1891   1.2089   1.5511   1.7457
     1.7985   1.8190   1.8277   1.8468   1.8680   1.8909   1.9041   1.9146
     1.9178   1.9212   1.9452   1.9651   1.9706   1.9849   2.0193   2.0569

     occupation numbers 
     1.0000   1.0000   1.0000   1.0000   1.0000   1.0000   1.0000   1.0000
     1.0000   1.0000   1.0000   1.0000   1.0000   1.0000   1.0000   1.0000
     1.0000   1.0000   1.0000   1.0000   1.0000   1.0000   1.0000   1.0000
     1.0000   1.0000   1.0000   1.0000   1.0000   1.0000   1.0000   1.0000
     1.0000   1.0000   1.0000   1.0000   1.0000   1.0000   1.0000   1.0000
     1.0000   1.0000   1.0000   1.0000   1.0000   1.0000   1.0000   1.0000
     1.0000   1.0000   1.0000   1.0000   1.0000   1.0000   1.0000   1.0000
     1.0000   1.0000   1.0000   1.0000   1.0000   1.0000   1.0000   1.0000
     1.0000   1.0000   1.0000   1.0000   1.0000   1.0000   1.0000   1.0000
     1.0000   1.0000   1.0000   1.0000   1.0000   1.0000   1.0000   1.0000
     1.0000   1.0000   1.0000   1.0000   1.0000   1.0000   1.0000   1.0000
     1.0000   1.0000   1.0000   1.0000   1.0000   1.0000   1.0000   1.0000
     1.0000   1.0000   1.0000   1.0000   1.0000   1.0000   1.0000   1.0000
     1.0000   1.0000   1.0000   1.0000   1.0000   1.0000   1.0000   1.0000
     1.0000   1.0000   1.0000   1.0000   1.0000   1.0000   1.0000   1.0000
     1.0000   1.0000   1.0000   1.0000   1.0000   1.0000   1.0000   1.0000
     1.0000   1.0000   1.0000   1.0000   1.0000   1.0000   1.0000   1.0000
     1.0000   1.0000   1.0000   1.0000   1.0000   1.0000   1.0000   1.0000
     0.0000   0.0000   0.0000   0.0000   0.0000   0.0000   0.0000   0.0000
     0.0000   0.0000   0.0000   0.0000   0.0000   0.0000   0.0000   0.0000
     0.0000   0.0000   0.0000   0.0000   0.0000   0.0000   0.0000   0.0000

     highest occupied, lowest unoccupied level (ev):    -3.4599   -3.0546

!    total energy              =    -923.69052218 Ry
     Harris-Foulkes estimate   =    -923.69052218 Ry
     estimated scf accuracy    <          5.2E-09 Ry

     The total energy is the sum of the following terms:

     one-electron contribution =   -6004.08037572 Ry
     hartree contribution      =    3060.19614444 Ry
     xc contribution           =    -264.85276722 Ry
     ewald contribution        =    2285.04647633 Ry

     total magnetization       =    -0.00 Bohr mag/cell
     absolute magnetization    =     1.79 Bohr mag/cell

     convergence has been achieved in  16 iterations

     Writing output data file BN.save
 
     init_run     :      2.41s CPU      2.86s WALL (       1 calls)
     electrons    :     27.85s CPU     28.45s WALL (       1 calls)

     Called by init_run:
     wfcinit      :      0.52s CPU      0.55s WALL (       1 calls)
     wfcinit:atom :      0.00s CPU      0.00s WALL (       1 calls)
     wfcinit:wfcr :      0.50s CPU      0.52s WALL (       1 calls)
     potinit      :      0.44s CPU      0.46s WALL (       1 calls)

     Called by electrons:
     c_bands      :     25.07s CPU     25.33s WALL (      16 calls)
     sum_band     :      1.53s CPU      1.55s WALL (      16 calls)
     v_of_rho     :      0.78s CPU      0.80s WALL (      17 calls)
     v_h          :      0.03s CPU      0.03s WALL (      17 calls)
     v_xc         :      0.75s CPU      0.76s WALL (      17 calls)
     mix_rho      :      0.23s CPU      0.24s WALL (      16 calls)

     Called by c_bands:
     init_us_2    :      0.22s CPU      0.23s WALL (      33 calls)
     cegterg      :     23.42s CPU     23.67s WALL (      16 calls)

     Called by sum_band:

     Called by *egterg:
     h_psi        :     11.35s CPU     11.46s WALL (     105 calls)
     g_psi        :      0.05s CPU      0.05s WALL (      88 calls)
     cdiaghg      :      7.90s CPU      7.95s WALL (     104 calls)
     cegterg:over :      1.84s CPU      1.85s WALL (      88 calls)
     cegterg:upda :      1.15s CPU      1.16s WALL (      88 calls)
     cegterg:last :      0.37s CPU      0.38s WALL (      16 calls)

     Called by h_psi:
     h_psi:pot    :     11.15s CPU     11.26s WALL (     105 calls)
     h_psi:calbec :      1.70s CPU      1.71s WALL (     105 calls)
     vloc_psi     :      7.89s CPU      7.98s WALL (     105 calls)
     add_vuspsi   :      1.56s CPU      1.57s WALL (     105 calls)

     General routines
     calbec       :      1.70s CPU      1.71s WALL (     105 calls)
     fft          :      0.66s CPU      0.70s WALL (     354 calls)
     fftw         :      8.46s CPU      8.55s WALL (   19078 calls)
 
     Parallel routines
     fft_scatter  :      5.37s CPU      5.43s WALL (   19432 calls)
 
     PWSCF        :    33.02s CPU        34.94s WALL

 
   This run was terminated on:  23: 1:50  10Feb2021            

=------------------------------------------------------------------------------=
   JOB DONE.
=------------------------------------------------------------------------------=
