
     Program PWSCF v.6.1 (svn rev. 13369) starts on 10Feb2021 at 22:59:58 

     This program is part of the open-source Quantum ESPRESSO suite
     for quantum simulation of materials; please cite
         "P. Giannozzi et al., J. Phys.:Condens. Matter 21 395502 (2009);
          URL http://www.quantum-espresso.org", 
     in publications or presentations arising from this work. More details at
     http://www.quantum-espresso.org/quote

     Parallel version (MPI), running on   160 processors
     K-points division:     npool     =       2
     R & G space division:  proc/nbgrp/npool/nimage =      80
     Reading input from scf.in
Warning: card &CELL ignored
Warning: card / ignored
Warning: card &IONS ignored
Warning: card / ignored

     Current dimensions of program PWSCF are:
     Max number of different atomic species (ntypx) = 10
     Max number of k-points (npk) = 120000
     Max angular momentum in pseudopotentials (lmaxx) =  3

     Subspace diagonalization in iterative solution of the eigenvalue problem:
     a serial algorithm will be used

 
     Parallelization info
     --------------------
     sticks:   dense  smooth     PW     G-vecs:    dense   smooth      PW
     Min         153     153     38                14461    14461    1806
     Max         154     154     39                14464    14464    1813
     Sum       12259   12259   3067              1156971  1156971  144701
 


     bravais-lattice index     =            0
     lattice parameter (alat)  =      28.4287  a.u.
     unit-cell volume          =   20997.3881 (a.u.)^3
     number of atoms/cell      =           72
     number of atomic types    =            3
     number of electrons       =       288.00 (up: 144.00, down: 144.00)
     number of Kohn-Sham states=          168
     kinetic-energy cutoff     =      55.0000  Ry
     charge density cutoff     =     220.0000  Ry
     convergence threshold     =      1.0E-08
     mixing beta               =       0.7000
     number of iterations used =            8  plain     mixing
     Exchange-correlation      = PBE ( 1  4  3  4 0 0)

     celldm(1)=  28.428666  celldm(2)=   0.000000  celldm(3)=   0.000000
     celldm(4)=   0.000000  celldm(5)=   0.000000  celldm(6)=   0.000000

     crystal axes: (cart. coord. in units of alat)
               a(1) = (   1.000000   0.000000   0.000000 )  
               a(2) = (  -0.499999   0.866026   0.000000 )  
               a(3) = (   0.000000   0.000000   1.055273 )  

     reciprocal axes: (cart. coord. in units 2 pi/alat)
               b(1) = (  1.000000  0.577349  0.000000 )  
               b(2) = (  0.000000  1.154700  0.000000 )  
               b(3) = (  0.000000  0.000000  0.947622 )  


     PseudoPot. # 1 for B  read from file:
     ~/pseudo-ONCV-proj/B_ONCV_PBE-1.0.upf
     MD5 check sum: Not computed, couldn't open file
     Pseudo is Norm-conserving, Zval =  3.0
     Generated using ONCVPSP code by D. R. Hamann
     Using radial grid of 1534 points,  4 beta functions with: 
                l(1) =   0
                l(2) =   0
                l(3) =   1
                l(4) =   1

     PseudoPot. # 2 for N  read from file:
     ~/pseudo-ONCV-proj/N_ONCV_PBE-1.0.upf
     MD5 check sum: Not computed, couldn't open file
     Pseudo is Norm-conserving, Zval =  5.0
     Generated using ONCVPSP code by D. R. Hamann
     Using radial grid of 1058 points,  4 beta functions with: 
                l(1) =   0
                l(2) =   0
                l(3) =   1
                l(4) =   1

     PseudoPot. # 3 for C  read from file:
     ~/pseudo-ONCV-proj/C_ONCV_PBE-1.0.upf
     MD5 check sum: Not computed, couldn't open file
     Pseudo is Norm-conserving, Zval =  4.0
     Generated using ONCVPSP code by D. R. Hamann
     Using radial grid of 1248 points,  4 beta functions with: 
                l(1) =   0
                l(2) =   0
                l(3) =   1
                l(4) =   1

     atomic species   valence    mass     pseudopotential
        B              3.00    10.81100     B ( 1.00)
        N              5.00    14.00674     N ( 1.00)
        C              4.00    12.01070     C ( 1.00)

     Starting magnetic structure 
     atomic species   magnetization
        B            1.000
        N            0.000
        C            0.000

      2 Sym. Ops. (no inversion) found


                                    s                        frac. trans.

      isym =  1     identity                                     

 cryst.   s( 1) = (     1          0          0      )
                  (     0          1          0      )
                  (     0          0          1      )

 cart.    s( 1) = (  1.0000000 -0.0000000  0.0000000 )
                  (  0.0000000  1.0000000  0.0000000 )
                  (  0.0000000  0.0000000  1.0000000 )


      isym =  2     inv. 180 deg rotation - cart. axis [0,0,1]   

 cryst.   s( 2) = (     1          0          0      )
                  (     0          1          0      )
                  (     0          0         -1      )

 cart.    s( 2) = (  1.0000000 -0.0000000  0.0000000 )
                  (  0.0000000  1.0000000  0.0000000 )
                  (  0.0000000  0.0000000 -1.0000000 )


   Cartesian axes

     site n.     atom                  positions (alat units)
         1           B   tau(   1) = (  -0.0001329   0.0960636   0.5276366  )
         2           B   tau(   2) = (  -0.0832891   0.2406273   0.5276366  )
         3           B   tau(   3) = (  -0.1665882   0.3849060   0.5276366  )
         4           B   tau(   4) = (  -0.2502056   0.5292034   0.5276366  )
         5           B   tau(   5) = (  -0.3332569   0.6735965   0.5276366  )
         6           B   tau(   6) = (  -0.4166098   0.8179683   0.5276366  )
         7           B   tau(   7) = (   0.1666529   0.0960457   0.5276366  )
         8           B   tau(   8) = (   0.0832529   0.2403904   0.5276366  )
         9           B   tau(   9) = (   0.0005553   0.3852206   0.5276366  )
        10           B   tau(  10) = (  -0.0835222   0.5292541   0.5276366  )
        11           B   tau(  11) = (  -0.1668280   0.6736532   0.5276366  )
        12           B   tau(  12) = (  -0.2500110   0.8179064   0.5276366  )
        13           B   tau(  13) = (   0.3334797   0.0959618   0.5276366  )
        14           B   tau(  14) = (   0.2504305   0.2394886   0.5276366  )
        15           B   tau(  15) = (   0.1678966   0.3834234   0.5276366  )
        16           B   tau(  16) = (   0.0826697   0.5310411   0.5276366  )
        17           B   tau(  17) = (  -0.0007142   0.6744851   0.5276366  )
        18           B   tau(  18) = (  -0.0834871   0.8181715   0.5276366  )
        19           B   tau(  19) = (   0.5000652   0.0962625   0.5276366  )
        20           B   tau(  20) = (   0.4164924   0.2408799   0.5276366  )
        21           B   tau(  21) = (   0.3321922   0.3851601   0.5276366  )
        22           B   tau(  22) = (   0.1663217   0.6724570   0.5276366  )
        23           B   tau(  23) = (   0.0835218   0.8176034   0.5276366  )
        24           B   tau(  24) = (   0.6666745   0.0961407   0.5276366  )
        25           B   tau(  25) = (   0.5832645   0.2406114   0.5276366  )
        26           B   tau(  26) = (   0.4997323   0.3850197   0.5276366  )
        27           B   tau(  27) = (   0.4165265   0.5300488   0.5276366  )
        28           B   tau(  28) = (   0.3339659   0.6730482   0.5276366  )
        29           B   tau(  29) = (   0.2499704   0.8176213   0.5276366  )
        30           B   tau(  30) = (   0.8332598   0.0961344   0.5276366  )
        31           B   tau(  31) = (   0.7499657   0.2405426   0.5276366  )
        32           B   tau(  32) = (   0.6665519   0.3848817   0.5276366  )
        33           B   tau(  33) = (   0.5830283   0.5292653   0.5276366  )
        34           B   tau(  34) = (   0.5004917   0.6738590   0.5276366  )
        35           B   tau(  35) = (   0.4165385   0.8176348   0.5276366  )
        36           N   tau(  36) = (   0.0832500   0.0479714   0.5276366  )
        37           N   tau(  37) = (  -0.0001564   0.1921390   0.5276366  )
        38           N   tau(  38) = (  -0.0831647   0.3368848   0.5276366  )
        39           N   tau(  39) = (  -0.1670137   0.4811452   0.5276366  )
        40           N   tau(  40) = (  -0.2501630   0.6254613   0.5276366  )
        41           N   tau(  41) = (  -0.3333845   0.7697706   0.5276366  )
        42           N   tau(  42) = (   0.2500471   0.0479969   0.5276366  )
        43           N   tau(  43) = (   0.1667417   0.1920227   0.5276366  )
        44           N   tau(  44) = (   0.0835881   0.3362054   0.5276366  )
        45           N   tau(  45) = (  -0.0003765   0.4816367   0.5276366  )
        46           N   tau(  46) = (  -0.0836652   0.6257414   0.5276366  )
        47           N   tau(  47) = (  -0.1667422   0.7698991   0.5276366  )
        48           N   tau(  48) = (   0.4167772   0.0481761   0.5276366  )
        49           N   tau(  49) = (   0.3337593   0.1919695   0.5276366  )
        50           N   tau(  50) = (   0.2508479   0.3352107   0.5276366  )
        51           N   tau(  51) = (   0.0823921   0.6269855   0.5276366  )
        52           N   tau(  52) = (  -0.0002023   0.7704096   0.5276366  )
        53           N   tau(  53) = (   0.5834876   0.0479264   0.5276366  )
        54           N   tau(  54) = (   0.4999163   0.1926766   0.5276366  )
        55           N   tau(  55) = (   0.4161271   0.3376589   0.5276366  )
        56           N   tau(  56) = (   0.3317142   0.4833736   0.5276366  )
        57           N   tau(  57) = (   0.2511379   0.6229362   0.5276366  )
        58           N   tau(  58) = (   0.1671521   0.7688975   0.5276366  )
        59           N   tau(  59) = (   0.7499639   0.0478040   0.5276366  )
        60           N   tau(  60) = (   0.6665867   0.1924037   0.5276366  )
        61           N   tau(  61) = (   0.5830486   0.3369106   0.5276366  )
        62           N   tau(  62) = (   0.4992301   0.4813016   0.5276366  )
        63           N   tau(  63) = (   0.4171345   0.6257327   0.5276366  )
        64           N   tau(  64) = (   0.3331016   0.7690453   0.5276366  )
        65           N   tau(  65) = (   0.9164599   0.0477564   0.5276366  )
        66           N   tau(  66) = (   0.8332589   0.1923550   0.5276366  )
        67           N   tau(  67) = (   0.7498808   0.3367705   0.5276366  )
        68           N   tau(  68) = (   0.6662556   0.4811242   0.5276366  )
        69           N   tau(  69) = (   0.5833423   0.6254565   0.5276366  )
        70           N   tau(  70) = (   0.4999994   0.7698111   0.5276366  )
        71           C   tau(  71) = (   0.2503794   0.5294566   0.5276366  )
        72           C   tau(  72) = (   0.1704569   0.4833133   0.5276366  )

   Crystallographic axes

     site n.     atom                  positions (cryst. coord.)
         1           B   tau(   1) = (  0.0553293  0.1109246  0.5000000  )
         2           B   tau(   2) = (  0.0556367  0.2778522  0.5000000  )
         3           B   tau(   3) = (  0.0556367  0.4444508  0.5000000  )
         4           B   tau(   4) = (  0.0553293  0.6110711  0.5000000  )
         5           B   tau(   5) = (  0.0556431  0.7778017  0.5000000  )
         6           B   tau(   6) = (  0.0556431  0.9445078  0.5000000  )
         7           B   tau(   7) = (  0.2221048  0.1109040  0.5000000  )
         8           B   tau(   8) = (  0.2220420  0.2775787  0.5000000  )
         9           B   tau(   9) = (  0.2229619  0.4448141  0.5000000  )
        10           B   tau(  10) = (  0.2220420  0.6111296  0.5000000  )
        11           B   tau(  11) = (  0.2221048  0.7778671  0.5000000  )
        12           B   tau(  12) = (  0.2222062  0.9444363  0.5000000  )
        13           B   tau(  13) = (  0.3888832  0.1108071  0.5000000  )
        14           B   tau(  14) = (  0.3886989  0.2765374  0.5000000  )
        15           B   tau(  15) = (  0.3892656  0.4427390  0.5000000  )
        16           B   tau(  16) = (  0.3892656  0.6131930  0.5000000  )
        17           B   tau(  17) = (  0.3886989  0.7788278  0.5000000  )
        18           B   tau(  18) = (  0.3888832  0.9447424  0.5000000  )
        19           B   tau(  19) = (  0.5556422  0.1111543  0.5000000  )
        20           B   tau(  20) = (  0.5555640  0.2781439  0.5000000  )
        21           B   tau(  21) = (  0.5545639  0.4447443  0.5000000  )
        22           B   tau(  22) = (  0.5545639  0.7764859  0.5000000  )
        23           B   tau(  23) = (  0.5555640  0.9440864  0.5000000  )
        24           B   tau(  24) = (  0.7221812  0.1110137  0.5000000  )
        25           B   tau(  25) = (  0.7221812  0.2778339  0.5000000  )
        26           B   tau(  26) = (  0.7220230  0.4445822  0.5000000  )
        27           B   tau(  27) = (  0.7225495  0.6120472  0.5000000  )
        28           B   tau(  28) = (  0.7225495  0.7771686  0.5000000  )
        29           B   tau(  29) = (  0.7220230  0.9441071  0.5000000  )
        30           B   tau(  30) = (  0.8887628  0.1110064  0.5000000  )
        31           B   tau(  31) = (  0.8888427  0.2777545  0.5000000  )
        32           B   tau(  32) = (  0.8887628  0.4444228  0.5000000  )
        33           B   tau(  33) = (  0.8885989  0.6111425  0.5000000  )
        34           B   tau(  34) = (  0.8895434  0.7781048  0.5000000  )
        35           B   tau(  35) = (  0.8885989  0.9441227  0.5000000  )
        36           N   tau(  36) = (  0.1109462  0.0553925  0.5000000  )
        37           N   tau(  37) = (  0.1107748  0.2218629  0.5000000  )
        38           N   tau(  38) = (  0.1113353  0.3890008  0.5000000  )
        39           N   tau(  39) = (  0.1107748  0.5555782  0.5000000  )
        40           N   tau(  40) = (  0.1109462  0.7222200  0.5000000  )
        41           N   tau(  41) = (  0.1110416  0.8888539  0.5000000  )
        42           N   tau(  42) = (  0.2777581  0.0554221  0.5000000  )
        43           N   tau(  43) = (  0.2776058  0.2217286  0.5000000  )
        44           N   tau(  44) = (  0.2776958  0.3882163  0.5000000  )
        45           N   tau(  45) = (  0.2776958  0.5561458  0.5000000  )
        46           N   tau(  46) = (  0.2776058  0.7225435  0.5000000  )
        47           N   tau(  47) = (  0.2777581  0.8890023  0.5000000  )
        48           N   tau(  48) = (  0.4445916  0.0556289  0.5000000  )
        49           N   tau(  49) = (  0.4445927  0.2216672  0.5000000  )
        50           N   tau(  50) = (  0.4443814  0.3870677  0.5000000  )
        51           N   tau(  51) = (  0.4443814  0.7239800  0.5000000  )
        52           N   tau(  52) = (  0.4445927  0.8895917  0.5000000  )
        53           N   tau(  53) = (  0.6111579  0.0553406  0.5000000  )
        54           N   tau(  54) = (  0.6111579  0.2224836  0.5000000  )
        55           N   tau(  55) = (  0.6110741  0.3898947  0.5000000  )
        56           N   tau(  56) = (  0.6107893  0.5581513  0.5000000  )
        57           N   tau(  57) = (  0.6107893  0.7193042  0.5000000  )
        58           N   tau(  58) = (  0.6110741  0.8878457  0.5000000  )
        59           N   tau(  59) = (  0.7775635  0.0551992  0.5000000  )
        60           N   tau(  60) = (  0.7776707  0.2221685  0.5000000  )
        61           N   tau(  61) = (  0.7775635  0.3890306  0.5000000  )
        62           N   tau(  62) = (  0.7771089  0.5557588  0.5000000  )
        63           N   tau(  63) = (  0.7784005  0.7225334  0.5000000  )
        64           N   tau(  64) = (  0.7771089  0.8880164  0.5000000  )
        65           N   tau(  65) = (  0.9440320  0.0551443  0.5000000  )
        66           N   tau(  66) = (  0.9443148  0.2221123  0.5000000  )
        67           N   tau(  67) = (  0.9443148  0.3888688  0.5000000  )
        68           N   tau(  68) = (  0.9440321  0.5555540  0.5000000  )
        69           N   tau(  69) = (  0.9444488  0.7222144  0.5000000  )
        70           N   tau(  70) = (  0.9444488  0.8889007  0.5000000  )
        71           C   tau(  71) = (  0.5560605  0.6113634  0.5000000  )
        72           C   tau(  72) = (  0.4494973  0.5580818  0.5000000  )

     number of k points=     1
                       cart. coord. in units 2pi/alat
        k(    1) = (   0.0000000   0.0000000   0.0000000), wk =   1.0000000

                       cryst. coord.
        k(    1) = (   0.0000000   0.0000000   0.0000000), wk =   1.0000000

     Dense  grid:  1156971 G-vectors     FFT dimensions: ( 135, 135, 144)

     Occupations read from input 

      Spin-up

        1.0000   1.0000   1.0000   1.0000   1.0000   1.0000   1.0000   1.0000
        1.0000   1.0000   1.0000   1.0000   1.0000   1.0000   1.0000   1.0000
        1.0000   1.0000   1.0000   1.0000   1.0000   1.0000   1.0000   1.0000
        1.0000   1.0000   1.0000   1.0000   1.0000   1.0000   1.0000   1.0000
        1.0000   1.0000   1.0000   1.0000   1.0000   1.0000   1.0000   1.0000
        1.0000   1.0000   1.0000   1.0000   1.0000   1.0000   1.0000   1.0000
        1.0000   1.0000   1.0000   1.0000   1.0000   1.0000   1.0000   1.0000
        1.0000   1.0000   1.0000   1.0000   1.0000   1.0000   1.0000   1.0000
        1.0000   1.0000   1.0000   1.0000   1.0000   1.0000   1.0000   1.0000
        1.0000   1.0000   1.0000   1.0000   1.0000   1.0000   1.0000   1.0000
        1.0000   1.0000   1.0000   1.0000   1.0000   1.0000   1.0000   1.0000
        1.0000   1.0000   1.0000   1.0000   1.0000   1.0000   1.0000   1.0000
        1.0000   1.0000   1.0000   1.0000   1.0000   1.0000   1.0000   1.0000
        1.0000   1.0000   1.0000   1.0000   1.0000   1.0000   1.0000   1.0000
        1.0000   1.0000   1.0000   1.0000   1.0000   1.0000   1.0000   1.0000
        1.0000   1.0000   1.0000   1.0000   1.0000   1.0000   1.0000   1.0000
        1.0000   1.0000   1.0000   1.0000   1.0000   1.0000   1.0000   1.0000
        1.0000   1.0000   1.0000   1.0000   1.0000   1.0000   1.0000   0.0000
        1.0000   0.0000   0.0000   0.0000   0.0000   0.0000   0.0000   0.0000
        0.0000   0.0000   0.0000   0.0000   0.0000   0.0000   0.0000   0.0000
        0.0000   0.0000   0.0000   0.0000   0.0000   0.0000   0.0000   0.0000

      Spin-down

        1.0000   1.0000   1.0000   1.0000   1.0000   1.0000   1.0000   1.0000
        1.0000   1.0000   1.0000   1.0000   1.0000   1.0000   1.0000   1.0000
        1.0000   1.0000   1.0000   1.0000   1.0000   1.0000   1.0000   1.0000
        1.0000   1.0000   1.0000   1.0000   1.0000   1.0000   1.0000   1.0000
        1.0000   1.0000   1.0000   1.0000   1.0000   1.0000   1.0000   1.0000
        1.0000   1.0000   1.0000   1.0000   1.0000   1.0000   1.0000   1.0000
        1.0000   1.0000   1.0000   1.0000   1.0000   1.0000   1.0000   1.0000
        1.0000   1.0000   1.0000   1.0000   1.0000   1.0000   1.0000   1.0000
        1.0000   1.0000   1.0000   1.0000   1.0000   1.0000   1.0000   1.0000
        1.0000   1.0000   1.0000   1.0000   1.0000   1.0000   1.0000   1.0000
        1.0000   1.0000   1.0000   1.0000   1.0000   1.0000   1.0000   1.0000
        1.0000   1.0000   1.0000   1.0000   1.0000   1.0000   1.0000   1.0000
        1.0000   1.0000   1.0000   1.0000   1.0000   1.0000   1.0000   1.0000
        1.0000   1.0000   1.0000   1.0000   1.0000   1.0000   1.0000   1.0000
        1.0000   1.0000   1.0000   1.0000   1.0000   1.0000   1.0000   1.0000
        1.0000   1.0000   1.0000   1.0000   1.0000   1.0000   1.0000   1.0000
        1.0000   1.0000   1.0000   1.0000   1.0000   1.0000   1.0000   1.0000
        1.0000   1.0000   1.0000   1.0000   1.0000   1.0000   1.0000   1.0000
        0.0000   0.0000   0.0000   0.0000   0.0000   0.0000   0.0000   0.0000
        0.0000   0.0000   0.0000   0.0000   0.0000   0.0000   0.0000   0.0000
        0.0000   0.0000   0.0000   0.0000   0.0000   0.0000   0.0000   0.0000

     Estimated max dynamical RAM per process >      68.84MB

     Estimated total allocated dynamical RAM >   11014.86MB
     Generating pointlists ...
     new r_m :   0.0394 (alat units)  1.1194 (a.u.) for type    1
     new r_m :   0.0386 (alat units)  1.0963 (a.u.) for type    2
     new r_m :   0.0381 (alat units)  1.0822 (a.u.) for type    3

     Initial potential from superposition of free atoms
     Check: negative starting charge=(component1):   -0.001386
     Check: negative starting charge=(component2):   -0.001913

     starting charge  287.99093, renormalised to  288.00000

     negative rho (up, down):  1.386E-03 1.913E-03
     Starting wfc are  288 randomized atomic wfcs

     total cpu time spent up to now is        3.2 secs

     per-process dynamical memory:    91.4 Mb

     Self-consistent Calculation

     iteration #  1     ecut=    55.00 Ry     beta=0.70
     Davidson diagonalization with overlap
     ethr =  1.00E-02,  avg # of iterations =  2.5

     negative rho (up, down):  1.551E-04 3.038E-04

     total cpu time spent up to now is        4.6 secs

     total energy              =    -916.50739782 Ry
     Harris-Foulkes estimate   =    -922.43471153 Ry
     estimated scf accuracy    <      16.97011394 Ry

     total magnetization       =    -0.00 Bohr mag/cell
     absolute magnetization    =    19.41 Bohr mag/cell

     iteration #  2     ecut=    55.00 Ry     beta=0.70
     Davidson diagonalization with overlap
     ethr =  5.89E-03,  avg # of iterations =  3.0

     negative rho (up, down):  6.513E-05 1.191E-04

     total cpu time spent up to now is        6.0 secs

     total energy              =    -921.21059030 Ry
     Harris-Foulkes estimate   =    -925.71943559 Ry
     estimated scf accuracy    <      10.38731055 Ry

     total magnetization       =    -0.00 Bohr mag/cell
     absolute magnetization    =    15.04 Bohr mag/cell

     iteration #  3     ecut=    55.00 Ry     beta=0.70
     Davidson diagonalization with overlap
     ethr =  3.61E-03,  avg # of iterations =  2.5

     negative rho (up, down):  1.786E-05 3.447E-05

     total cpu time spent up to now is        7.2 secs

     total energy              =    -923.08442698 Ry
     Harris-Foulkes estimate   =    -923.39119635 Ry
     estimated scf accuracy    <       0.93606156 Ry

     total magnetization       =     0.00 Bohr mag/cell
     absolute magnetization    =    10.21 Bohr mag/cell

     iteration #  4     ecut=    55.00 Ry     beta=0.70
     Davidson diagonalization with overlap
     ethr =  3.25E-04,  avg # of iterations = 14.5

     negative rho (up, down):  4.709E-09 1.066E-08

     total cpu time spent up to now is       10.3 secs

     total energy              =    -923.49302752 Ry
     Harris-Foulkes estimate   =    -923.77572612 Ry
     estimated scf accuracy    <       1.23692879 Ry

     total magnetization       =    -0.00 Bohr mag/cell
     absolute magnetization    =     7.98 Bohr mag/cell

     iteration #  5     ecut=    55.00 Ry     beta=0.70
     Davidson diagonalization with overlap
     ethr =  3.25E-04,  avg # of iterations =  8.0

     negative rho (up, down):  6.610E-09 1.268E-08

     total cpu time spent up to now is       11.8 secs

     total energy              =    -923.65065375 Ry
     Harris-Foulkes estimate   =    -923.65149448 Ry
     estimated scf accuracy    <       0.04038938 Ry

     total magnetization       =    -0.00 Bohr mag/cell
     absolute magnetization    =     5.58 Bohr mag/cell

     iteration #  6     ecut=    55.00 Ry     beta=0.70
     Davidson diagonalization with overlap
     ethr =  1.40E-05,  avg # of iterations = 11.5

     total cpu time spent up to now is       14.9 secs

     total energy              =    -923.67602520 Ry
     Harris-Foulkes estimate   =    -923.66315174 Ry
     estimated scf accuracy    <       0.00901177 Ry

     total magnetization       =    -0.00 Bohr mag/cell
     absolute magnetization    =     4.55 Bohr mag/cell

     iteration #  7     ecut=    55.00 Ry     beta=0.70
     Davidson diagonalization with overlap
     ethr =  3.13E-06,  avg # of iterations =  7.5

     total cpu time spent up to now is       18.2 secs

     total energy              =    -923.68575726 Ry
     Harris-Foulkes estimate   =    -923.68364955 Ry
     estimated scf accuracy    <       0.00471598 Ry

     total magnetization       =    -0.00 Bohr mag/cell
     absolute magnetization    =     3.16 Bohr mag/cell

     iteration #  8     ecut=    55.00 Ry     beta=0.70
     Davidson diagonalization with overlap
     ethr =  1.64E-06,  avg # of iterations =  3.5

     total cpu time spent up to now is       19.7 secs

     total energy              =    -923.68810767 Ry
     Harris-Foulkes estimate   =    -923.68741731 Ry
     estimated scf accuracy    <       0.00113975 Ry

     total magnetization       =     0.00 Bohr mag/cell
     absolute magnetization    =     2.53 Bohr mag/cell

     iteration #  9     ecut=    55.00 Ry     beta=0.70
     Davidson diagonalization with overlap
     ethr =  3.96E-07,  avg # of iterations =  3.5

     total cpu time spent up to now is       21.4 secs

     total energy              =    -923.68891958 Ry
     Harris-Foulkes estimate   =    -923.68884968 Ry
     estimated scf accuracy    <       0.00024597 Ry

     total magnetization       =    -0.00 Bohr mag/cell
     absolute magnetization    =     2.07 Bohr mag/cell

     iteration # 10     ecut=    55.00 Ry     beta=0.70
     Davidson diagonalization with overlap
     ethr =  8.54E-08,  avg # of iterations =  3.5

     total cpu time spent up to now is       22.9 secs

     total energy              =    -923.68908559 Ry
     Harris-Foulkes estimate   =    -923.68910184 Ry
     estimated scf accuracy    <       0.00006310 Ry

     total magnetization       =     0.00 Bohr mag/cell
     absolute magnetization    =     1.87 Bohr mag/cell

     iteration # 11     ecut=    55.00 Ry     beta=0.70
     Davidson diagonalization with overlap
     ethr =  2.19E-08,  avg # of iterations =  3.0

     total cpu time spent up to now is       24.2 secs

     total energy              =    -923.68910997 Ry
     Harris-Foulkes estimate   =    -923.68911021 Ry
     estimated scf accuracy    <       0.00000247 Ry

     total magnetization       =    -0.00 Bohr mag/cell
     absolute magnetization    =     1.81 Bohr mag/cell

     iteration # 12     ecut=    55.00 Ry     beta=0.70
     Davidson diagonalization with overlap
     ethr =  8.56E-10,  avg # of iterations =  3.5

     total cpu time spent up to now is       25.7 secs

     total energy              =    -923.68911143 Ry
     Harris-Foulkes estimate   =    -923.68911159 Ry
     estimated scf accuracy    <       0.00000093 Ry

     total magnetization       =     0.00 Bohr mag/cell
     absolute magnetization    =     1.80 Bohr mag/cell

     iteration # 13     ecut=    55.00 Ry     beta=0.70
     Davidson diagonalization with overlap
     ethr =  3.22E-10,  avg # of iterations =  3.5

     total cpu time spent up to now is       27.0 secs

     total energy              =    -923.68911179 Ry
     Harris-Foulkes estimate   =    -923.68911169 Ry
     estimated scf accuracy    <       0.00000009 Ry

     total magnetization       =    -0.00 Bohr mag/cell
     absolute magnetization    =     1.80 Bohr mag/cell

     iteration # 14     ecut=    55.00 Ry     beta=0.70
     Davidson diagonalization with overlap
     ethr =  2.97E-11,  avg # of iterations =  3.5

     total cpu time spent up to now is       28.6 secs

     total energy              =    -923.68911184 Ry
     Harris-Foulkes estimate   =    -923.68911183 Ry
     estimated scf accuracy    <       0.00000003 Ry

     total magnetization       =     0.00 Bohr mag/cell
     absolute magnetization    =     1.80 Bohr mag/cell

     iteration # 15     ecut=    55.00 Ry     beta=0.70
     Davidson diagonalization with overlap
     ethr =  1.10E-11,  avg # of iterations =  3.5

     total cpu time spent up to now is       30.0 secs

     total energy              =    -923.68911186 Ry
     Harris-Foulkes estimate   =    -923.68911185 Ry
     estimated scf accuracy    <       0.00000001 Ry

     total magnetization       =     0.00 Bohr mag/cell
     absolute magnetization    =     1.80 Bohr mag/cell

     iteration # 16     ecut=    55.00 Ry     beta=0.70
     Davidson diagonalization with overlap
     ethr =  3.76E-12,  avg # of iterations =  4.0
 
     Magnetic moment per site:
     atom:    1    charge:    0.8620    magn:    0.0005    constr:    0.0000
     atom:    2    charge:    0.8613    magn:    0.0023    constr:    0.0000
     atom:    3    charge:    0.8613    magn:    0.0023    constr:    0.0000
     atom:    4    charge:    0.8620    magn:    0.0005    constr:    0.0000
     atom:    5    charge:    0.8640    magn:    0.0016    constr:    0.0000
     atom:    6    charge:    0.8640    magn:    0.0016    constr:    0.0000
     atom:    7    charge:    0.8664    magn:    0.0020    constr:    0.0000
     atom:    8    charge:    0.8633    magn:    0.0018    constr:    0.0000
     atom:    9    charge:    0.8599    magn:    0.0080    constr:    0.0000
     atom:   10    charge:    0.8633    magn:    0.0018    constr:    0.0000
     atom:   11    charge:    0.8664    magn:    0.0020    constr:    0.0000
     atom:   12    charge:    0.8652    magn:    0.0060    constr:    0.0000
     atom:   13    charge:    0.8655    magn:    0.0019    constr:    0.0000
     atom:   14    charge:    0.8703    magn:    0.0071    constr:    0.0000
     atom:   15    charge:    0.8763    magn:    0.0235    constr:    0.0000
     atom:   16    charge:    0.8763    magn:    0.0235    constr:    0.0000
     atom:   17    charge:    0.8703    magn:    0.0071    constr:    0.0000
     atom:   18    charge:    0.8655    magn:    0.0019    constr:    0.0000
     atom:   19    charge:    0.8623    magn:    0.0015    constr:    0.0000
     atom:   20    charge:    0.8584    magn:    0.0002    constr:    0.0000
     atom:   21    charge:    0.8558    magn:    0.0036    constr:    0.0000
     atom:   22    charge:    0.8558    magn:    0.0036    constr:    0.0000
     atom:   23    charge:    0.8584    magn:    0.0002    constr:    0.0000
     atom:   24    charge:    0.8625    magn:    0.0018    constr:    0.0000
     atom:   25    charge:    0.8625    magn:    0.0018    constr:    0.0000
     atom:   26    charge:    0.8637    magn:    0.0032    constr:    0.0000
     atom:   27    charge:    0.8674    magn:    0.0129    constr:    0.0000
     atom:   28    charge:    0.8674    magn:    0.0129    constr:    0.0000
     atom:   29    charge:    0.8637    magn:    0.0032    constr:    0.0000
     atom:   30    charge:    0.8639    magn:    0.0007    constr:    0.0000
     atom:   31    charge:    0.8633    magn:    0.0055    constr:    0.0000
     atom:   32    charge:    0.8639    magn:    0.0007    constr:    0.0000
     atom:   33    charge:    0.8608    magn:    0.0008    constr:    0.0000
     atom:   34    charge:    0.8692    magn:    0.0053    constr:    0.0000
     atom:   35    charge:    0.8608    magn:    0.0008    constr:    0.0000
     atom:   36    charge:    2.7187    magn:   -0.0004    constr:    0.0000
     atom:   37    charge:    2.7147    magn:   -0.0010    constr:    0.0000
     atom:   38    charge:    2.7130    magn:   -0.0148    constr:    0.0000
     atom:   39    charge:    2.7147    magn:   -0.0010    constr:    0.0000
     atom:   40    charge:    2.7187    magn:   -0.0004    constr:    0.0000
     atom:   41    charge:    2.7138    magn:   -0.0106    constr:    0.0000
     atom:   42    charge:    2.7179    magn:   -0.0041    constr:    0.0000
     atom:   43    charge:    2.7171    magn:   -0.0106    constr:    0.0000
     atom:   44    charge:    2.7112    magn:   -0.0203    constr:    0.0000
     atom:   45    charge:    2.7112    magn:   -0.0203    constr:    0.0000
     atom:   46    charge:    2.7171    magn:   -0.0106    constr:    0.0000
     atom:   47    charge:    2.7179    magn:   -0.0041    constr:    0.0000
     atom:   48    charge:    2.7203    magn:   -0.0051    constr:    0.0000
     atom:   49    charge:    2.7187    magn:   -0.0006    constr:    0.0000
     atom:   50    charge:    2.7233    magn:   -0.0009    constr:    0.0000
     atom:   51    charge:    2.7233    magn:   -0.0009    constr:    0.0000
     atom:   52    charge:    2.7187    magn:   -0.0006    constr:    0.0000
     atom:   53    charge:    2.7160    magn:   -0.0029    constr:    0.0000
     atom:   54    charge:    2.7160    magn:   -0.0029    constr:    0.0000
     atom:   55    charge:    2.7115    magn:   -0.0176    constr:    0.0000
     atom:   56    charge:    2.6873    magn:   -0.0449    constr:    0.0000
     atom:   57    charge:    2.6873    magn:   -0.0449    constr:    0.0000
     atom:   58    charge:    2.7115    magn:   -0.0176    constr:    0.0000
     atom:   59    charge:    2.7164    magn:   -0.0041    constr:    0.0000
     atom:   60    charge:    2.7127    magn:   -0.0100    constr:    0.0000
     atom:   61    charge:    2.7164    magn:   -0.0041    constr:    0.0000
     atom:   62    charge:    2.7132    magn:   -0.0015    constr:    0.0000
     atom:   63    charge:    2.7222    magn:   -0.0202    constr:    0.0000
     atom:   64    charge:    2.7132    magn:   -0.0015    constr:    0.0000
     atom:   65    charge:    2.7166    magn:   -0.0042    constr:    0.0000
     atom:   66    charge:    2.7164    magn:   -0.0033    constr:    0.0000
     atom:   67    charge:    2.7164    magn:   -0.0033    constr:    0.0000
     atom:   68    charge:    2.7166    magn:   -0.0042    constr:    0.0000
     atom:   69    charge:    2.7191    magn:   -0.0039    constr:    0.0000
     atom:   70    charge:    2.7191    magn:   -0.0039    constr:    0.0000
     atom:   71    charge:    1.5896    magn:    0.1709    constr:    0.0000
     atom:   72    charge:    1.6275    magn:   -0.1423    constr:    0.0000

     total cpu time spent up to now is       31.4 secs

     End of self-consistent calculation

 ------ SPIN UP ------------


          k = 0.0000 0.0000 0.0000 (144701 PWs)   bands (ev):

   -21.8676 -21.1785 -20.8460 -20.8115 -20.7595 -20.7323 -20.6306 -20.1205
   -19.9347 -19.8227 -19.7939 -19.7722 -19.6688 -19.4989 -19.4669 -19.3892
   -19.3378 -19.3193 -19.1072 -18.7108 -18.5032 -18.4121 -18.3707 -18.3472
   -18.3452 -18.3177 -18.3158 -18.2828 -18.2783 -18.2766 -18.2428 -18.1694
   -18.1430 -17.7557 -17.6549 -15.6295 -13.1553 -12.5490 -12.5485 -12.2340
   -12.0086 -11.8042 -11.7826 -11.7644 -11.7570 -11.7171 -11.7012 -11.6990
   -11.6796 -11.6111 -11.5936 -11.5764 -11.5250 -11.0228 -10.8024 -10.6781
   -10.6275 -10.5782 -10.5157 -10.4383 -10.4136  -9.6132  -9.4472  -9.2377
    -9.2227  -9.1920  -9.1761  -9.1361  -9.1243  -9.0511  -9.0410  -9.0250
    -9.0012  -8.9970  -8.9792  -8.9768  -8.9615  -8.9209  -8.8081  -8.6367
    -8.4955  -8.2254  -8.2107  -8.1658  -8.1337  -8.0515  -8.0303  -7.8603
    -7.8325  -7.7264  -7.7025  -7.6520  -7.6370  -7.5466  -7.5245  -7.3964
    -7.3247  -7.3141  -7.2626  -7.2476  -7.1400  -7.1163  -7.0346  -7.0211
    -7.0042  -6.9700  -6.8802  -6.8560  -6.8556  -6.8351  -6.8103  -6.7106
    -6.5209  -6.3883  -6.2690  -6.2521  -6.2178  -6.1918  -6.0414  -6.0170
    -5.9602  -5.9078  -5.9057  -5.8632  -5.4346  -5.0133  -4.9758  -4.9116
    -4.7782  -4.7628  -4.7435  -4.7312  -4.7125  -4.7056  -4.6723  -4.6694
    -4.6649  -4.6606  -4.5933  -4.5437  -4.4840  -3.9526  -3.6509  -3.0685
     0.2257   1.0128   1.0557   1.0939   1.1520   1.1531   1.4256   1.7139
     1.7699   1.7737   1.7976   1.8125   1.8482   1.8547   1.8673   1.8806
     1.9052   1.9094   1.9293   1.9536   1.9601   1.9625   1.9735   2.0266

     occupation numbers 
     1.0000   1.0000   1.0000   1.0000   1.0000   1.0000   1.0000   1.0000
     1.0000   1.0000   1.0000   1.0000   1.0000   1.0000   1.0000   1.0000
     1.0000   1.0000   1.0000   1.0000   1.0000   1.0000   1.0000   1.0000
     1.0000   1.0000   1.0000   1.0000   1.0000   1.0000   1.0000   1.0000
     1.0000   1.0000   1.0000   1.0000   1.0000   1.0000   1.0000   1.0000
     1.0000   1.0000   1.0000   1.0000   1.0000   1.0000   1.0000   1.0000
     1.0000   1.0000   1.0000   1.0000   1.0000   1.0000   1.0000   1.0000
     1.0000   1.0000   1.0000   1.0000   1.0000   1.0000   1.0000   1.0000
     1.0000   1.0000   1.0000   1.0000   1.0000   1.0000   1.0000   1.0000
     1.0000   1.0000   1.0000   1.0000   1.0000   1.0000   1.0000   1.0000
     1.0000   1.0000   1.0000   1.0000   1.0000   1.0000   1.0000   1.0000
     1.0000   1.0000   1.0000   1.0000   1.0000   1.0000   1.0000   1.0000
     1.0000   1.0000   1.0000   1.0000   1.0000   1.0000   1.0000   1.0000
     1.0000   1.0000   1.0000   1.0000   1.0000   1.0000   1.0000   1.0000
     1.0000   1.0000   1.0000   1.0000   1.0000   1.0000   1.0000   1.0000
     1.0000   1.0000   1.0000   1.0000   1.0000   1.0000   1.0000   1.0000
     1.0000   1.0000   1.0000   1.0000   1.0000   1.0000   1.0000   1.0000
     1.0000   1.0000   1.0000   1.0000   1.0000   1.0000   1.0000   0.0000
     1.0000   0.0000   0.0000   0.0000   0.0000   0.0000   0.0000   0.0000
     0.0000   0.0000   0.0000   0.0000   0.0000   0.0000   0.0000   0.0000
     0.0000   0.0000   0.0000   0.0000   0.0000   0.0000   0.0000   0.0000

 ------ SPIN DOWN ----------


          k = 0.0000 0.0000 0.0000 (144701 PWs)   bands (ev):

   -21.8236 -21.1782 -20.8570 -20.8183 -20.7634 -20.7370 -20.6393 -20.1187
   -19.9588 -19.8382 -19.7996 -19.7764 -19.6767 -19.5017 -19.4814 -19.4114
   -19.3412 -19.3237 -19.1241 -18.7418 -18.5120 -18.4240 -18.3825 -18.3604
   -18.3510 -18.3272 -18.3251 -18.2905 -18.2855 -18.2845 -18.2507 -18.1885
   -18.1653 -17.7736 -17.6668 -15.8195 -13.1090 -12.5453 -12.5383 -12.2192
   -11.9949 -11.8005 -11.7801 -11.7617 -11.7563 -11.7167 -11.6989 -11.6973
   -11.6731 -11.6254 -11.5938 -11.5698 -11.5281 -11.0118 -10.7963 -10.6735
   -10.6209 -10.5763 -10.5112 -10.4529 -10.4099  -9.5983  -9.4426  -9.2362
    -9.2275  -9.1977  -9.1802  -9.1363  -9.1219  -9.0509  -9.0400  -9.0312
    -9.0006  -8.9966  -8.9782  -8.9601  -8.9449  -8.9173  -8.8184  -8.6368
    -8.4286  -8.2327  -8.2158  -8.1638  -8.1336  -8.0492  -8.0360  -7.8637
    -7.8369  -7.7267  -7.6995  -7.6521  -7.6387  -7.5497  -7.5282  -7.3975
    -7.3271  -7.3165  -7.2656  -7.2537  -7.1465  -7.0469  -7.0384  -7.0250
    -7.0116  -6.9722  -6.9009  -6.8718  -6.8680  -6.8382  -6.8078  -6.7279
    -6.5354  -6.3597  -6.2892  -6.2872  -6.2114  -6.1859  -6.0683  -6.0442
    -5.9678  -5.9111  -5.9077  -5.8777  -5.4563  -5.0224  -5.0019  -4.9307
    -4.8019  -4.7747  -4.7618  -4.7406  -4.7282  -4.7253  -4.7180  -4.6903
    -4.6717  -4.6699  -4.6128  -4.5718  -4.5164  -4.1166  -3.6825  -3.4655
     0.7531   1.0709   1.0786   1.1320   1.1889   1.2086   1.5519   1.7451
     1.7982   1.8184   1.8264   1.8472   1.8665   1.8905   1.9032   1.9146
     1.9173   1.9209   1.9448   1.9652   1.9710   1.9848   2.0195   2.0577

     occupation numbers 
     1.0000   1.0000   1.0000   1.0000   1.0000   1.0000   1.0000   1.0000
     1.0000   1.0000   1.0000   1.0000   1.0000   1.0000   1.0000   1.0000
     1.0000   1.0000   1.0000   1.0000   1.0000   1.0000   1.0000   1.0000
     1.0000   1.0000   1.0000   1.0000   1.0000   1.0000   1.0000   1.0000
     1.0000   1.0000   1.0000   1.0000   1.0000   1.0000   1.0000   1.0000
     1.0000   1.0000   1.0000   1.0000   1.0000   1.0000   1.0000   1.0000
     1.0000   1.0000   1.0000   1.0000   1.0000   1.0000   1.0000   1.0000
     1.0000   1.0000   1.0000   1.0000   1.0000   1.0000   1.0000   1.0000
     1.0000   1.0000   1.0000   1.0000   1.0000   1.0000   1.0000   1.0000
     1.0000   1.0000   1.0000   1.0000   1.0000   1.0000   1.0000   1.0000
     1.0000   1.0000   1.0000   1.0000   1.0000   1.0000   1.0000   1.0000
     1.0000   1.0000   1.0000   1.0000   1.0000   1.0000   1.0000   1.0000
     1.0000   1.0000   1.0000   1.0000   1.0000   1.0000   1.0000   1.0000
     1.0000   1.0000   1.0000   1.0000   1.0000   1.0000   1.0000   1.0000
     1.0000   1.0000   1.0000   1.0000   1.0000   1.0000   1.0000   1.0000
     1.0000   1.0000   1.0000   1.0000   1.0000   1.0000   1.0000   1.0000
     1.0000   1.0000   1.0000   1.0000   1.0000   1.0000   1.0000   1.0000
     1.0000   1.0000   1.0000   1.0000   1.0000   1.0000   1.0000   1.0000
     0.0000   0.0000   0.0000   0.0000   0.0000   0.0000   0.0000   0.0000
     0.0000   0.0000   0.0000   0.0000   0.0000   0.0000   0.0000   0.0000
     0.0000   0.0000   0.0000   0.0000   0.0000   0.0000   0.0000   0.0000

     highest occupied, lowest unoccupied level (ev):    -3.4655   -3.0685

!    total energy              =    -923.68911186 Ry
     Harris-Foulkes estimate   =    -923.68911186 Ry
     estimated scf accuracy    <          4.7E-09 Ry

     The total energy is the sum of the following terms:

     one-electron contribution =   -6004.07356460 Ry
     hartree contribution      =    3060.18963193 Ry
     xc contribution           =    -264.85211032 Ry
     ewald contribution        =    2285.04693113 Ry

     total magnetization       =    -0.00 Bohr mag/cell
     absolute magnetization    =     1.80 Bohr mag/cell

     convergence has been achieved in  16 iterations

     Writing output data file BN.save
 
     init_run     :      2.50s CPU      3.02s WALL (       1 calls)
     electrons    :     28.14s CPU     28.53s WALL (       1 calls)

     Called by init_run:
     wfcinit      :      0.52s CPU      0.56s WALL (       1 calls)
     wfcinit:atom :      0.00s CPU      0.01s WALL (       1 calls)
     wfcinit:wfcr :      0.50s CPU      0.52s WALL (       1 calls)
     potinit      :      0.47s CPU      0.47s WALL (       1 calls)

     Called by electrons:
     c_bands      :     25.37s CPU     25.63s WALL (      16 calls)
     sum_band     :      1.51s CPU      1.53s WALL (      16 calls)
     v_of_rho     :      0.78s CPU      0.79s WALL (      17 calls)
     v_h          :      0.03s CPU      0.03s WALL (      17 calls)
     v_xc         :      0.75s CPU      0.76s WALL (      17 calls)
     mix_rho      :      0.23s CPU      0.24s WALL (      16 calls)

     Called by c_bands:
     init_us_2    :      0.22s CPU      0.24s WALL (      33 calls)
     cegterg      :     22.97s CPU     23.22s WALL (      16 calls)

     Called by sum_band:

     Called by *egterg:
     h_psi        :     11.32s CPU     11.43s WALL (     102 calls)
     g_psi        :      0.05s CPU      0.05s WALL (      85 calls)
     cdiaghg      :      7.55s CPU      7.61s WALL (     101 calls)
     cegterg:over :      1.81s CPU      1.82s WALL (      85 calls)
     cegterg:upda :      1.12s CPU      1.13s WALL (      85 calls)
     cegterg:last :      0.37s CPU      0.38s WALL (      16 calls)

     Called by h_psi:
     h_psi:pot    :     11.13s CPU     11.24s WALL (     102 calls)
     h_psi:calbec :      1.70s CPU      1.71s WALL (     102 calls)
     vloc_psi     :      7.90s CPU      7.97s WALL (     102 calls)
     add_vuspsi   :      1.53s CPU      1.55s WALL (     102 calls)

     General routines
     calbec       :      1.70s CPU      1.71s WALL (     102 calls)
     fft          :      0.59s CPU      0.61s WALL (     354 calls)
     fftw         :      8.43s CPU      8.51s WALL (   19086 calls)
 
     Parallel routines
     fft_scatter  :      5.26s CPU      5.31s WALL (   19440 calls)
 
     PWSCF        :    33.34s CPU        35.41s WALL

 
   This run was terminated on:  23: 0:33  10Feb2021            

=------------------------------------------------------------------------------=
   JOB DONE.
=------------------------------------------------------------------------------=
