
                                 *****************
                                 * O   R   C   A *
                                 *****************

           --- An Ab Initio, DFT and Semiempirical electronic structure package ---

                  #######################################################
                  #                        -***-                        #
                  #          Department of theory and spectroscopy      #
                  #               Directorship: Frank Neese             #
                  #        Max Planck Institute fuer Kohlenforschung    #
                  #                Kaiser Wilhelm Platz 1               #
                  #                 D-45470 Muelheim/Ruhr               #
                  #                      Germany                        #
                  #                                                     #
                  #                  All rights reserved                #
                  #                        -***-                        #
                  #######################################################


                         Program Version 4.2.1 -  RELEASE  -


 With contributions from (in alphabetic order):
   Daniel Aravena         : Magnetic Suceptibility
   Michael Atanasov       : Ab Initio Ligand Field Theory (pilot matlab implementation)
   Alexander A. Auer      : GIAO ZORA, VPT2
   Ute Becker             : Parallelization
   Giovanni Bistoni       : ED, misc. LED, open-shell LED, HFLD
   Martin Brehm           : Molecular dynamics
   Dmytro Bykov           : SCF Hessian
   Vijay G. Chilkuri      : MRCI spin determinant printing, contributions to CSF-ICE
   Dipayan Datta          : RHF DLPNO-CCSD density
   Achintya Kumar Dutta   : EOM-CC, STEOM-CC
   Dmitry Ganyushin       : Spin-Orbit,Spin-Spin,Magnetic field MRCI
   Miquel Garcia          : C-PCM Hessian, Gaussian charge scheme
   Yang Guo               : DLPNO-NEVPT2, CIM, IAO-localization
   Andreas Hansen         : Spin unrestricted coupled pair/coupled cluster methods
   Benjamin Helmich-Paris : CASSCF linear response (MC-RPA)
   Lee Huntington         : MR-EOM, pCC
   Robert Izsak           : Overlap fitted RIJCOSX, COSX-SCS-MP3, EOM
   Christian Kollmar      : KDIIS, OOCD, Brueckner-CCSD(T), CCSD density
   Simone Kossmann        : Meta GGA functionals, TD-DFT gradient, OOMP2, MP2 Hessian
   Martin Krupicka        : AUTO-CI
   Lucas Lang             : DCDCAS
   Dagmar Lenk            : GEPOL surface, SMD
   Dimitrios Liakos       : Extrapolation schemes; Compound Job, initial MDCI parallelization
   Dimitrios Manganas     : Further ROCIS development; embedding schemes
   Dimitrios Pantazis     : SARC Basis sets
   Taras Petrenko         : DFT Hessian,TD-DFT gradient, ASA, ECA, R-Raman, ABS, FL, XAS/XES, NRVS
   Peter Pinski           : DLPNO-MP2, DLPNO-MP2 Gradient
   Christoph Reimann      : Effective Core Potentials
   Marius Retegan         : Local ZFS, SOC
   Christoph Riplinger    : Optimizer, TS searches, QM/MM, DLPNO-CCSD(T), (RO)-DLPNO pert. Triples
   Tobias Risthaus        : Range-separated hybrids, TD-DFT gradient, RPA, STAB
   Michael Roemelt        : Original ROCIS implementation
   Masaaki Saitow         : Open-shell DLPNO-CCSD energy and density
   Barbara Sandhoefer     : DKH picture change effects
   Avijit Sen             : IP-ROCIS
   Kantharuban Sivalingam : CASSCF convergence, NEVPT2, FIC-MRCI
   Bernardo de Souza      : ESD, SOC TD-DFT
   Georgi Stoychev        : AutoAux, RI-MP2 NMR
   Willem Van den Heuvel  : Paramagnetic NMR
   Boris Wezisla          : Elementary symmetry handling
   Frank Wennmohs         : Technical directorship


 We gratefully acknowledge several colleagues who have allowed us to
 interface, adapt or use parts of their codes:
   Stefan Grimme, W. Hujo, H. Kruse,             : VdW corrections, initial TS optimization,
                  C. Bannwarth                     DFT functionals, gCP, sTDA/sTD-DF
   Ed Valeev, F. Pavosevic, A. Kumar             : LibInt (2-el integral package), F12 methods
   Garnet Chan, S. Sharma, J. Yang, R. Olivares  : DMRG
   Ulf Ekstrom                                   : XCFun DFT Library
   Mihaly Kallay                                 : mrcc  (arbitrary order and MRCC methods)
   Andreas Klamt, Michael Diedenhofen            : otool_cosmo (COSMO solvation model)
   Jiri Pittner, Ondrej Demel                    : Mk-CCSD
   Frank Weinhold                                : gennbo (NPA and NBO analysis)
   Christopher J. Cramer and Donald G. Truhlar   : smd solvation model
   Lars Goerigk                                  : TD-DFT with DH, B97 family of functionals
   V. Asgeirsson, H. Jonsson                     : NEB implementation
   FAccTs GmbH                                   : IRC, NEB, NEB-TS, Multilevel, MM, QM/MM, CI optimization
   S Lehtola, MJT Oliveira, MAL Marques          : LibXC Library


 Your calculation uses the libint2 library for the computation of 2-el integrals
 For citations please refer to: http://libint.valeyev.net

 Your ORCA version has been built with support for libXC version: 4.2.3
 For citations please refer to: https://tddft.org/programs/libxc/

 This ORCA versions uses:
   CBLAS   interface :  Fast vector & matrix operations
   LAPACKE interface :  Fast linear algebra routines
   SCALAPACK package :  Parallel linear algebra routines




***************************************
The coordinates will be read from file: nv_cluster.xyz
***************************************


----- Orbital basis set information -----
Your calculation utilizes the basis: EPR-II
   V. Barone, in Recent Advances in Density Functional Methods, Part 1 (ed. D. P. Chong), World Scientific, Singapore, 1995, p. 287.

----- AuxJ basis set information -----
Your calculation utilizes the AutoAux generation procedure.
  G. L. Stoychev, A. A. Auer, F. Neese, J. Chem. Theory Comput. 13, 554 (2017)

----- AuxC basis set information -----
Your calculation utilizes the AutoAux generation procedure.
  G. L. Stoychev, A. A. Auer, F. Neese, J. Chem. Theory Comput. 13, 554 (2017)

----- AuxJK basis set information -----
Your calculation utilizes the AutoAux generation procedure.
  G. L. Stoychev, A. A. Auer, F. Neese, J. Chem. Theory Comput. 13, 554 (2017)

================================================================================
                                        WARNINGS
                       Please study these warnings very carefully!
================================================================================


WARNING: your system is open-shell and RHF/RKS was chosen
  ===> : WILL SWITCH to UHF/UKS


INFO   : the flag for use of LIBINT has been found!

================================================================================
                                       INPUT FILE
================================================================================
NAME = zfs.in
|  1> 
|  2> # Use EPR-II is a special basis set for epr, autoaux creates a large auxiliary basis set
|  3> !PBE EPR-II AUTOAUX RIJCOSX
|  4> 
|  5> # use original (unoptimized) cluster xyz
|  6> *xyzfile -1 3 nv_cluster.xyz
|  7> 
|  8> # Parallelization
|  9> %PAL NPROCS 72 END
| 10> 
| 11> # ZFS calculation
| 12> %EPRNMR DTENSOR SSANDSO
| 13>     DSS     UNO
| 14>     DSOC    CP
| 15> END
| 16> 
| 17>                          ****END OF INPUT****
================================================================================

                       ****************************
                       * Single Point Calculation *
                       ****************************

---------------------------------
CARTESIAN COORDINATES (ANGSTROEM)
---------------------------------
  C      8.091600    6.206040    8.091600
  C      8.028270    8.028270    9.810990
  C      9.804780    6.248830    6.248830
  C      6.248830    9.804780    6.248830
  C      6.248830    6.248830    9.804780
  C      8.013620    6.253760    4.476130
  C      4.476130    6.253760    8.013620
  C      6.253760    8.013620    4.476130
  C      6.253760    4.476130    8.013620
  C      8.013620    4.476130    6.253760
  C      4.476130    8.013620    6.253760
  C      5.355250    5.355250    7.096690
  C      5.355250    7.096690    5.355250
  C      7.096690    5.355250    5.355250
  C      8.917750    8.917750    7.130610
  C      8.917750    7.130610    8.917750
  C      7.130610    8.917750    8.917750
  C      8.907460    7.147320    5.371140
  C      5.371140    7.147320    8.907460
  C      7.147320    8.907460    5.371140
  C      7.147320    5.371140    8.907460
  C      8.907460    5.371140    7.147320
  C      5.371140    8.907460    7.147320
  C      8.091600    8.091600    6.206040
  C      6.206040    8.091600    8.091600
  C      9.810990    8.028270    8.028270
  C      8.028270    9.810990    8.028270
  N      6.164130    6.164130    6.164130
  H      7.413360    7.413360   10.434410
  H      8.648950    8.648950   10.422890
  H     10.436790    6.859340    6.859340
  H     10.413920    5.626790    5.626790
  H      5.623980   10.408140    5.623980
  H      6.856400   10.442440    6.856400
  H      6.859340    6.859340   10.436790
  H      5.626790    5.626790   10.413920
  H      7.405680    6.875000    3.852130
  H      8.638760    5.628850    3.873150
  H      3.864670    5.633050    8.634700
  H      3.860530    6.879190    7.401440
  H      5.633050    8.634700    3.864670
  H      6.879190    7.401440    3.860530
  H      6.875000    3.852130    7.405680
  H      5.628850    3.873150    8.638760
  H      8.634700    3.864670    5.633050
  H      7.401440    3.860530    6.879190
  H      3.852130    7.405680    6.875000
  H      3.873150    8.638760    5.628850
  H      4.732430    4.732430    6.489170
  H      4.732430    6.489170    4.732430
  H      6.489170    4.732430    4.732430
  H      9.540160    9.540160    6.522250
  H      9.540160    6.522250    9.540160
  H      6.522250    9.540160    9.540160
  H      9.525800    7.755210    4.744220
  H      4.744220    7.755210    9.525800
  H      7.755210    9.525800    4.744220
  H      7.755210    4.744220    9.525800
  H      9.525800    4.744220    7.755210
  H      4.744220    9.525800    7.755210
  H     10.423080    8.648860    8.648860
  H     10.434230    7.413260    7.413260
  H      7.413360   10.434410    7.413360
  H      8.648950   10.422890    8.648950

----------------------------
CARTESIAN COORDINATES (A.U.)
----------------------------
  NO LB      ZA    FRAG     MASS         X           Y           Z
   0 C     6.0000    0    12.011   15.290908   11.727716   15.290908
   1 C     6.0000    0    12.011   15.171232   15.171232   18.540084
   2 C     6.0000    0    12.011   18.528349   11.808577   11.808577
   3 C     6.0000    0    12.011   11.808577   18.528349   11.808577
   4 C     6.0000    0    12.011   11.808577   11.808577   18.528349
   5 C     6.0000    0    12.011   15.143547   11.817894    8.458660
   6 C     6.0000    0    12.011    8.458660   11.817894   15.143547
   7 C     6.0000    0    12.011   11.817894   15.143547    8.458660
   8 C     6.0000    0    12.011   11.817894    8.458660   15.143547
   9 C     6.0000    0    12.011   15.143547    8.458660   11.817894
  10 C     6.0000    0    12.011    8.458660   15.143547   11.817894
  11 C     6.0000    0    12.011   10.119956   10.119956   13.410801
  12 C     6.0000    0    12.011   10.119956   13.410801   10.119956
  13 C     6.0000    0    12.011   13.410801   10.119956   10.119956
  14 C     6.0000    0    12.011   16.852105   16.852105   13.474900
  15 C     6.0000    0    12.011   16.852105   13.474900   16.852105
  16 C     6.0000    0    12.011   13.474900   16.852105   16.852105
  17 C     6.0000    0    12.011   16.832660   13.506477   10.149984
  18 C     6.0000    0    12.011   10.149984   13.506477   16.832660
  19 C     6.0000    0    12.011   13.506477   16.832660   10.149984
  20 C     6.0000    0    12.011   13.506477   10.149984   16.832660
  21 C     6.0000    0    12.011   16.832660   10.149984   13.506477
  22 C     6.0000    0    12.011   10.149984   16.832660   13.506477
  23 C     6.0000    0    12.011   15.290908   15.290908   11.727716
  24 C     6.0000    0    12.011   11.727716   15.290908   15.290908
  25 C     6.0000    0    12.011   18.540084   15.171232   15.171232
  26 C     6.0000    0    12.011   15.171232   18.540084   15.171232
  27 N     7.0000    0    14.007   11.648518   11.648518   11.648518
  28 H     1.0000    0     1.008   14.009220   14.009220   19.718177
  29 H     1.0000    0     1.008   16.344147   16.344147   19.696408
  30 H     1.0000    0     1.008   19.722675   12.962274   12.962274
  31 H     1.0000    0     1.008   19.679457   10.633092   10.633092
  32 H     1.0000    0     1.008   10.627782   19.668534   10.627782
  33 H     1.0000    0     1.008   12.956718   19.733352   12.956718
  34 H     1.0000    0     1.008   12.962274   12.962274   19.722675
  35 H     1.0000    0     1.008   10.633092   10.633092   19.679457
  36 H     1.0000    0     1.008   13.994707   12.991867    7.279471
  37 H     1.0000    0     1.008   16.324891   10.636985    7.319193
  38 H     1.0000    0     1.008    7.303168   10.644922   16.317218
  39 H     1.0000    0     1.008    7.295344   12.999785   13.986695
  40 H     1.0000    0     1.008   10.644922   16.317218    7.303168
  41 H     1.0000    0     1.008   12.999785   13.986695    7.295344
  42 H     1.0000    0     1.008   12.991867    7.279471   13.994707
  43 H     1.0000    0     1.008   10.636985    7.319193   16.324891
  44 H     1.0000    0     1.008   16.317218    7.303168   10.644922
  45 H     1.0000    0     1.008   13.986695    7.295344   12.999785
  46 H     1.0000    0     1.008    7.279471   13.994707   12.991867
  47 H     1.0000    0     1.008    7.319193   16.324891   10.636985
  48 H     1.0000    0     1.008    8.942997    8.942997   12.262754
  49 H     1.0000    0     1.008    8.942997   12.262754    8.942997
  50 H     1.0000    0     1.008   12.262754    8.942997    8.942997
  51 H     1.0000    0     1.008   18.028290   18.028290   12.325266
  52 H     1.0000    0     1.008   18.028290   12.325266   18.028290
  53 H     1.0000    0     1.008   12.325266   18.028290   18.028290
  54 H     1.0000    0     1.008   18.001153   14.655223    8.965277
  55 H     1.0000    0     1.008    8.965277   14.655223   18.001153
  56 H     1.0000    0     1.008   14.655223   18.001153    8.965277
  57 H     1.0000    0     1.008   14.655223    8.965277   18.001153
  58 H     1.0000    0     1.008   18.001153    8.965277   14.655223
  59 H     1.0000    0     1.008    8.965277   18.001153   14.655223
  60 H     1.0000    0     1.008   19.696767   16.343977   16.343977
  61 H     1.0000    0     1.008   19.717837   14.009031   14.009031
  62 H     1.0000    0     1.008   14.009220   19.718177   14.009220
  63 H     1.0000    0     1.008   16.344147   19.696408   16.344147

--------------------------------
INTERNAL COORDINATES (ANGSTROEM)
--------------------------------
 C      0   0   0     0.000000000000     0.00000000     0.00000000
 C      1   0   0     2.506159379190     0.00000000     0.00000000
 C      1   2   0     2.516469346008   120.47980163     0.00000000
 C      2   1   3     4.360203935517    75.28951276    76.22046809
 C      1   2   3     2.516469346008    60.13666109   185.28092605
 C      3   1   2     2.520068201557    91.79198254   238.71168205
 C      5   1   2     2.520068201557    91.79198254   123.94390755
 C      6   3   1     2.488817879878   120.26270367    55.80981499
 C      7   5   1     2.513948454881    60.08029854    53.58771898
 C      9   7   5     2.488817879878   120.00000000   250.17453640
 C      7   5   1     2.488817879878   120.26270367   304.19018501
 C      7   5   1     1.555934709234    91.16208969    34.31291560
 C      8   6   3     1.555934709234    89.52036489   268.93440633
 C      6   3   1     1.555934709234    91.16208969   325.68708440
 C      3   1   2     2.947455199948    65.88564782   327.58081757
 C      1   2   3     1.489925276616    35.15413206    36.91849483
 C      2   1   3     1.547528947581    92.09616738    86.26473595
 C      3   1   2     1.543634412223    91.74895805   274.21412918
 C      5   1   2     1.543634412223    91.74895805    88.44146042
 C      4   2   1     1.543634412223    89.43444612   329.10816183
 C      1   2   3     1.501449389090    90.89531622   168.18484645
 C      1   2   3     1.501449389090   148.15947890    30.90318513
 C      4   2   1     1.543634412223    61.29327482    81.12116562
 C     15   3   1     1.489925276616    58.60965677   280.74828730
 C     17   2   1     1.489925276616   111.18020203    33.04196419
 C     15   3   1     1.547528947581    58.62536457    70.95401177
 C     15   3   1     1.547528947581   150.36231022   358.24113344
 N     12   7   5     1.475886805416   111.44049815   266.47389401
 H      2   1   3     1.069991174076    89.79353307   195.73746053
 H      2   1   3     1.070004175132   143.07771550   319.13264563
 H      3   1   2     1.069991383283    89.65615315    23.82610373
 H      3   1   2     1.070008907813   143.45442016   146.59818792
 H      4   2   1     1.070008567536   160.93593747   146.72547784
 H      4   2   1     1.069996675415    63.07526487   216.46486797
 H     29   2   1     0.783506212611   144.53757974   327.85866188
 H      5   1   2     1.070008907813   143.45442016   216.05740169
 H      6   3   1     1.070002888407   144.60621113    92.43846601
 H      6   3   1     1.069998788831    88.85454943   216.71123382
 H      7   5   1     1.070002150512    89.32899054   143.56976877
 H      7   5   1     1.069995512748   144.34071963   268.39352698
 H      8   6   3     1.070002150512   145.14812122   144.50547090
 H     37   6   3     0.744581327794   143.67472723   297.93895215
 H      9   7   5     1.070002888407   145.37731396   214.72621590
 H      9   7   5     1.069998788831    89.16961751    89.15623899
 H     10   9   7     1.070002150512   145.14812122   215.23987415
 H     43   9   7     0.744581327794   143.67472723    59.45941249
 H     40   7   5     0.744581327794   145.51898321    61.41526941
 H     11   7   5     1.069998788831   145.69949232   215.48546727
 H     12   7   5     1.069995352887   109.98974505   148.94952807
 H     13   8   6     1.069995352887   109.98974505   269.20901610
 H     14   6   3     1.069995352887   109.98974505   211.05047193
 H     15   3   1     1.069995469990   100.46117684   177.12691771
 H     16   1   2     1.069995469990   106.99375317   119.12222917
 H     17   2   1     1.069995469990   109.17093523   150.85301270
 H     18   3   1     1.070001539298   109.14085342   150.53266699
 H     19   5   1     1.070001539298   109.14085342   209.46733301
 H     20   4   2     1.070001539298   109.14085342   239.07347811
 H     21   1   2     1.070001539298   106.41038929   267.64060383
 H     22   1   2     1.070001539298   106.41038929    68.05132377
 H     23   4   2     1.070001539298   109.14085342   101.69249187
 H     26  15   3     1.070008441228   109.46620566   150.41611367
 H     31   3   1     0.783365359459   143.60831212   328.00561943
 H     34   4   2     0.787701316553   142.83582035    18.92060647
 H     27  15   3     1.070004175132   109.46008504   119.16576000

---------------------------
INTERNAL COORDINATES (A.U.)
---------------------------
 C      0   0   0     0.000000000000     0.00000000     0.00000000
 C      1   0   0     4.735954874626     0.00000000     0.00000000
 C      1   2   0     4.755437888364   120.47980163     0.00000000
 C      2   1   3     8.239591326173    75.28951276    76.22046809
 C      1   2   3     4.755437888364    60.13666109   185.28092605
 C      3   1   2     4.762238739747    91.79198254   238.71168205
 C      5   1   2     4.762238739747    91.79198254   123.94390755
 C      6   3   1     4.703184190176   120.26270367    55.80981499
 C      7   5   1     4.750674094520    60.08029854    53.58771898
 C      9   7   5     4.703184190176   120.00000000   250.17453640
 C      7   5   1     4.703184190176   120.26270367   304.19018501
 C      7   5   1     2.940290482715    91.16208969    34.31291560
 C      8   6   3     2.940290482715    89.52036489   268.93440633
 C      6   3   1     2.940290482715    91.16208969   325.68708440
 C      3   1   2     5.569883119904    65.88564782   327.58081757
 C      1   2   3     2.815550732812    35.15413206    36.91849483
 C      2   1   3     2.924405895243    92.09616738    86.26473595
 C      3   1   2     2.917046289999    91.74895805   274.21412918
 C      5   1   2     2.917046289999    91.74895805    88.44146042
 C      4   2   1     2.917046289999    89.43444612   329.10816183
 C      1   2   3     2.837328149324    90.89531622   168.18484645
 C      1   2   3     2.837328149324   148.15947890    30.90318513
 C      4   2   1     2.917046289999    61.29327482    81.12116562
 C     15   3   1     2.815550732812    58.60965677   280.74828730
 C     17   2   1     2.815550732812   111.18020203    33.04196419
 C     15   3   1     2.924405895243    58.62536457    70.95401177
 C     15   3   1     2.924405895243   150.36231022   358.24113344
 N     12   7   5     2.789021866903   111.44049815   266.47389401
 H      2   1   3     2.021990284716    89.79353307   195.73746053
 H      2   1   3     2.022014853152   143.07771550   319.13264563
 H      3   1   2     2.021990680061    89.65615315    23.82610373
 H      3   1   2     2.022023796623   143.45442016   146.59818792
 H      4   2   1     2.022023153592   160.93593747   146.72547784
 H      4   2   1     2.022000680741    63.07526487   216.46486797
 H     29   2   1     1.480612166061   144.53757974   327.85866188
 H      5   1   2     2.022023796623   143.45442016   216.05740169
 H      6   3   1     2.022012421595   144.60621113    92.43846601
 H      6   3   1     2.022004674518    88.85454943   216.71123382
 H      7   5   1     2.022011027174    89.32899054   143.56976877
 H      7   5   1     2.021998483618   144.34071963   268.39352698
 H      8   6   3     2.022011027174   145.14812122   144.50547090
 H     37   6   3     1.407054793963   143.67472723   297.93895215
 H      9   7   5     2.022012421595   145.37731396   214.72621590
 H      9   7   5     2.022004674518    89.16961751    89.15623899
 H     10   9   7     2.022011027174   145.14812122   215.23987415
 H     43   9   7     1.407054793963   143.67472723    59.45941249
 H     40   7   5     1.407054793963   145.51898321    61.41526941
 H     11   7   5     2.022004674518   145.69949232   215.48546727
 H     12   7   5     2.021998181525   109.98974505   148.94952807
 H     13   8   6     2.021998181525   109.98974505   269.20901610
 H     14   6   3     2.021998181525   109.98974505   211.05047193
 H     15   3   1     2.021998402818   100.46117684   177.12691771
 H     16   1   2     2.021998402818   106.99375317   119.12222917
 H     17   2   1     2.021998402818   109.17093523   150.85301270
 H     18   3   1     2.022009872147   109.14085342   150.53266699
 H     19   5   1     2.022009872147   109.14085342   209.46733301
 H     20   4   2     2.022009872147   109.14085342   239.07347811
 H     21   1   2     2.022009872147   106.41038929   267.64060383
 H     22   1   2     2.022009872147   106.41038929    68.05132377
 H     23   4   2     2.022009872147   109.14085342   101.69249187
 H     26  15   3     2.022022914906   109.46620566   150.41611367
 H     31   3   1     1.480345992178   143.60831212   328.00561943
 H     34   4   2     1.488539763615   142.83582035    18.92060647
 H     27  15   3     2.022014853152   109.46008504   119.16576000

---------------------
BASIS SET INFORMATION
---------------------
There are 3 groups of distinct atoms

 Group   1 Type C   : 10s5p1d contracted to 6s2p1d pattern {511111/41/1}
 Group   2 Type N   : 10s5p1d contracted to 6s2p1d pattern {511111/41/1}
 Group   3 Type H   : 6s1p contracted to 4s1p pattern {3111/1}

Atom   0C    basis set group =>   1
Atom   1C    basis set group =>   1
Atom   2C    basis set group =>   1
Atom   3C    basis set group =>   1
Atom   4C    basis set group =>   1
Atom   5C    basis set group =>   1
Atom   6C    basis set group =>   1
Atom   7C    basis set group =>   1
Atom   8C    basis set group =>   1
Atom   9C    basis set group =>   1
Atom  10C    basis set group =>   1
Atom  11C    basis set group =>   1
Atom  12C    basis set group =>   1
Atom  13C    basis set group =>   1
Atom  14C    basis set group =>   1
Atom  15C    basis set group =>   1
Atom  16C    basis set group =>   1
Atom  17C    basis set group =>   1
Atom  18C    basis set group =>   1
Atom  19C    basis set group =>   1
Atom  20C    basis set group =>   1
Atom  21C    basis set group =>   1
Atom  22C    basis set group =>   1
Atom  23C    basis set group =>   1
Atom  24C    basis set group =>   1
Atom  25C    basis set group =>   1
Atom  26C    basis set group =>   1
Atom  27N    basis set group =>   2
Atom  28H    basis set group =>   3
Atom  29H    basis set group =>   3
Atom  30H    basis set group =>   3
Atom  31H    basis set group =>   3
Atom  32H    basis set group =>   3
Atom  33H    basis set group =>   3
Atom  34H    basis set group =>   3
Atom  35H    basis set group =>   3
Atom  36H    basis set group =>   3
Atom  37H    basis set group =>   3
Atom  38H    basis set group =>   3
Atom  39H    basis set group =>   3
Atom  40H    basis set group =>   3
Atom  41H    basis set group =>   3
Atom  42H    basis set group =>   3
Atom  43H    basis set group =>   3
Atom  44H    basis set group =>   3
Atom  45H    basis set group =>   3
Atom  46H    basis set group =>   3
Atom  47H    basis set group =>   3
Atom  48H    basis set group =>   3
Atom  49H    basis set group =>   3
Atom  50H    basis set group =>   3
Atom  51H    basis set group =>   3
Atom  52H    basis set group =>   3
Atom  53H    basis set group =>   3
Atom  54H    basis set group =>   3
Atom  55H    basis set group =>   3
Atom  56H    basis set group =>   3
Atom  57H    basis set group =>   3
Atom  58H    basis set group =>   3
Atom  59H    basis set group =>   3
Atom  60H    basis set group =>   3
Atom  61H    basis set group =>   3
Atom  62H    basis set group =>   3
Atom  63H    basis set group =>   3
---------------------------------
AUXILIARY/J BASIS SET INFORMATION
---------------------------------
There are 3 groups of distinct atoms

 Group   1 Type C   : 17s13p12d2f contracted to 17s13p12d2f pattern {11111111111111111/1111111111111/111111111111/11}
 Group   2 Type N   : 17s13p12d2f contracted to 17s13p12d2f pattern {11111111111111111/1111111111111/111111111111/11}
 Group   3 Type H   : 15s6p1d contracted to 15s6p1d pattern {111111111111111/111111/1}

Atom   0C    basis set group =>   1
Atom   1C    basis set group =>   1
Atom   2C    basis set group =>   1
Atom   3C    basis set group =>   1
Atom   4C    basis set group =>   1
Atom   5C    basis set group =>   1
Atom   6C    basis set group =>   1
Atom   7C    basis set group =>   1
Atom   8C    basis set group =>   1
Atom   9C    basis set group =>   1
Atom  10C    basis set group =>   1
Atom  11C    basis set group =>   1
Atom  12C    basis set group =>   1
Atom  13C    basis set group =>   1
Atom  14C    basis set group =>   1
Atom  15C    basis set group =>   1
Atom  16C    basis set group =>   1
Atom  17C    basis set group =>   1
Atom  18C    basis set group =>   1
Atom  19C    basis set group =>   1
Atom  20C    basis set group =>   1
Atom  21C    basis set group =>   1
Atom  22C    basis set group =>   1
Atom  23C    basis set group =>   1
Atom  24C    basis set group =>   1
Atom  25C    basis set group =>   1
Atom  26C    basis set group =>   1
Atom  27N    basis set group =>   2
Atom  28H    basis set group =>   3
Atom  29H    basis set group =>   3
Atom  30H    basis set group =>   3
Atom  31H    basis set group =>   3
Atom  32H    basis set group =>   3
Atom  33H    basis set group =>   3
Atom  34H    basis set group =>   3
Atom  35H    basis set group =>   3
Atom  36H    basis set group =>   3
Atom  37H    basis set group =>   3
Atom  38H    basis set group =>   3
Atom  39H    basis set group =>   3
Atom  40H    basis set group =>   3
Atom  41H    basis set group =>   3
Atom  42H    basis set group =>   3
Atom  43H    basis set group =>   3
Atom  44H    basis set group =>   3
Atom  45H    basis set group =>   3
Atom  46H    basis set group =>   3
Atom  47H    basis set group =>   3
Atom  48H    basis set group =>   3
Atom  49H    basis set group =>   3
Atom  50H    basis set group =>   3
Atom  51H    basis set group =>   3
Atom  52H    basis set group =>   3
Atom  53H    basis set group =>   3
Atom  54H    basis set group =>   3
Atom  55H    basis set group =>   3
Atom  56H    basis set group =>   3
Atom  57H    basis set group =>   3
Atom  58H    basis set group =>   3
Atom  59H    basis set group =>   3
Atom  60H    basis set group =>   3
Atom  61H    basis set group =>   3
Atom  62H    basis set group =>   3
Atom  63H    basis set group =>   3
---------------------------------
AUXILIARY/C BASIS SET INFORMATION
---------------------------------
There are 3 groups of distinct atoms

 Group   1 Type C   : 17s13p12d2f contracted to 17s13p12d2f pattern {11111111111111111/1111111111111/111111111111/11}
 Group   2 Type N   : 17s13p12d2f contracted to 17s13p12d2f pattern {11111111111111111/1111111111111/111111111111/11}
 Group   3 Type H   : 15s6p1d contracted to 15s6p1d pattern {111111111111111/111111/1}

Atom   0C    basis set group =>   1
Atom   1C    basis set group =>   1
Atom   2C    basis set group =>   1
Atom   3C    basis set group =>   1
Atom   4C    basis set group =>   1
Atom   5C    basis set group =>   1
Atom   6C    basis set group =>   1
Atom   7C    basis set group =>   1
Atom   8C    basis set group =>   1
Atom   9C    basis set group =>   1
Atom  10C    basis set group =>   1
Atom  11C    basis set group =>   1
Atom  12C    basis set group =>   1
Atom  13C    basis set group =>   1
Atom  14C    basis set group =>   1
Atom  15C    basis set group =>   1
Atom  16C    basis set group =>   1
Atom  17C    basis set group =>   1
Atom  18C    basis set group =>   1
Atom  19C    basis set group =>   1
Atom  20C    basis set group =>   1
Atom  21C    basis set group =>   1
Atom  22C    basis set group =>   1
Atom  23C    basis set group =>   1
Atom  24C    basis set group =>   1
Atom  25C    basis set group =>   1
Atom  26C    basis set group =>   1
Atom  27N    basis set group =>   2
Atom  28H    basis set group =>   3
Atom  29H    basis set group =>   3
Atom  30H    basis set group =>   3
Atom  31H    basis set group =>   3
Atom  32H    basis set group =>   3
Atom  33H    basis set group =>   3
Atom  34H    basis set group =>   3
Atom  35H    basis set group =>   3
Atom  36H    basis set group =>   3
Atom  37H    basis set group =>   3
Atom  38H    basis set group =>   3
Atom  39H    basis set group =>   3
Atom  40H    basis set group =>   3
Atom  41H    basis set group =>   3
Atom  42H    basis set group =>   3
Atom  43H    basis set group =>   3
Atom  44H    basis set group =>   3
Atom  45H    basis set group =>   3
Atom  46H    basis set group =>   3
Atom  47H    basis set group =>   3
Atom  48H    basis set group =>   3
Atom  49H    basis set group =>   3
Atom  50H    basis set group =>   3
Atom  51H    basis set group =>   3
Atom  52H    basis set group =>   3
Atom  53H    basis set group =>   3
Atom  54H    basis set group =>   3
Atom  55H    basis set group =>   3
Atom  56H    basis set group =>   3
Atom  57H    basis set group =>   3
Atom  58H    basis set group =>   3
Atom  59H    basis set group =>   3
Atom  60H    basis set group =>   3
Atom  61H    basis set group =>   3
Atom  62H    basis set group =>   3
Atom  63H    basis set group =>   3
----------------------------------
AUXILIARY/JK BASIS SET INFORMATION
----------------------------------
There are 3 groups of distinct atoms

 Group   1 Type C   : 17s13p12d2f contracted to 17s13p12d2f pattern {11111111111111111/1111111111111/111111111111/11}
 Group   2 Type N   : 17s13p12d2f contracted to 17s13p12d2f pattern {11111111111111111/1111111111111/111111111111/11}
 Group   3 Type H   : 15s6p1d contracted to 15s6p1d pattern {111111111111111/111111/1}

Atom   0C    basis set group =>   1
Atom   1C    basis set group =>   1
Atom   2C    basis set group =>   1
Atom   3C    basis set group =>   1
Atom   4C    basis set group =>   1
Atom   5C    basis set group =>   1
Atom   6C    basis set group =>   1
Atom   7C    basis set group =>   1
Atom   8C    basis set group =>   1
Atom   9C    basis set group =>   1
Atom  10C    basis set group =>   1
Atom  11C    basis set group =>   1
Atom  12C    basis set group =>   1
Atom  13C    basis set group =>   1
Atom  14C    basis set group =>   1
Atom  15C    basis set group =>   1
Atom  16C    basis set group =>   1
Atom  17C    basis set group =>   1
Atom  18C    basis set group =>   1
Atom  19C    basis set group =>   1
Atom  20C    basis set group =>   1
Atom  21C    basis set group =>   1
Atom  22C    basis set group =>   1
Atom  23C    basis set group =>   1
Atom  24C    basis set group =>   1
Atom  25C    basis set group =>   1
Atom  26C    basis set group =>   1
Atom  27N    basis set group =>   2
Atom  28H    basis set group =>   3
Atom  29H    basis set group =>   3
Atom  30H    basis set group =>   3
Atom  31H    basis set group =>   3
Atom  32H    basis set group =>   3
Atom  33H    basis set group =>   3
Atom  34H    basis set group =>   3
Atom  35H    basis set group =>   3
Atom  36H    basis set group =>   3
Atom  37H    basis set group =>   3
Atom  38H    basis set group =>   3
Atom  39H    basis set group =>   3
Atom  40H    basis set group =>   3
Atom  41H    basis set group =>   3
Atom  42H    basis set group =>   3
Atom  43H    basis set group =>   3
Atom  44H    basis set group =>   3
Atom  45H    basis set group =>   3
Atom  46H    basis set group =>   3
Atom  47H    basis set group =>   3
Atom  48H    basis set group =>   3
Atom  49H    basis set group =>   3
Atom  50H    basis set group =>   3
Atom  51H    basis set group =>   3
Atom  52H    basis set group =>   3
Atom  53H    basis set group =>   3
Atom  54H    basis set group =>   3
Atom  55H    basis set group =>   3
Atom  56H    basis set group =>   3
Atom  57H    basis set group =>   3
Atom  58H    basis set group =>   3
Atom  59H    basis set group =>   3
Atom  60H    basis set group =>   3
Atom  61H    basis set group =>   3
Atom  62H    basis set group =>   3
Atom  63H    basis set group =>   3

Checking for AutoStart:
The File: zfs.gbw exists
Trying to determine its content:
     ... Fine, the file contains calculation information
     ... Fine, the calculation information was read
     ... Fine, the file contains a basis set
     ... Fine, the basis set was read
     ... Fine, the file contains a geometry
     ... Fine, the geometry was read
     ... Fine, the file contains a set of orbitals
     ... Fine, the orbitals can be read
     => possible old guess file was deleted
     => GBW file was renamed to GES file
     => GES file is set as startup file
     => Guess is set to MORead
     ... now leaving AutoStart



           ************************************************************
           *        Program running with 72 parallel MPI-processes    *
           *              working on a shared directory               *
           ************************************************************
------------------------------------------------------------------------------
                           ORCA GTO INTEGRAL CALCULATION
                           -- RI-GTO INTEGRALS CHOSEN --
------------------------------------------------------------------------------

                         BASIS SET STATISTICS AND STARTUP INFO

Gaussian basis set:
 # of primitive gaussian shells          ...  700
 # of primitive gaussian functions       ... 1164
 # of contracted shells                  ...  432
 # of contracted basis functions         ...  728
 Highest angular momentum                ...    2
 Maximum contraction depth               ...    5
Auxiliary gaussian basis set:
 # of primitive gaussian shells          ... 2024
 # of primitive gaussian functions       ... 5008
 # of contracted shells                  ... 2024
 # of contracted aux-basis functions     ... 5008
 Highest angular momentum                ...    3
 Maximum contraction depth               ...    1
Ratio of auxiliary to basis functions    ...  6.88
Integral package used                  ... LIBINT
 One Electron integrals                  ... done
 Ordering auxiliary basis shells         ... done
 Integral threshhold             Thresh  ...  1.000e-10
 Primitive cut-off               TCut    ...  1.000e-11
 Pre-screening matrix                    ... done
 Shell pair data                         ... 
 Ordering of the shell pairs             ... done (   0.018 sec) 66469 of 93528 pairs
 Determination of significant pairs      ... done (   0.000 sec)
 Creation of shell pair data             ... done (   0.014 sec)
 Storage of shell pair data              ... done (   0.097 sec)
 Shell pair data done in (   0.130 sec)
 Computing two index integrals           ... done
 Cholesky decomposition of the V-matrix  ... done


Timings:
 Total evaluation time                   ...   4.959 sec (  0.083 min)
 One electron matrix time                ...   0.853 sec (  0.014 min) = 17.2%
 Schwartz matrix evaluation time         ...   0.390 sec (  0.007 min) =  7.9%
 Two index repulsion integral time       ...   0.961 sec (  0.016 min) = 19.4%
 Cholesky decomposition of V             ...   2.504 sec (  0.042 min) = 50.5%
 Three index repulsion integral time     ...   0.000 sec (  0.000 min) =  0.0%



           ************************************************************
           *        Program running with 72 parallel MPI-processes    *
           *              working on a shared directory               *
           ************************************************************
-------------------------------------------------------------------------------
                                 ORCA SCF
-------------------------------------------------------------------------------

------------
SCF SETTINGS
------------
Hamiltonian:
 Density Functional     Method          .... DFT(GTOs)
 Exchange Functional    Exchange        .... PBE
   PBE kappa parameter   XKappa         ....  0.804000
   PBE mue parameter    XMuePBE         ....  0.219520
 Correlation Functional Correlation     .... PBE
   PBE beta parameter  CBetaPBE         ....  0.066725
 LDA part of GGA corr.  LDAOpt          .... PW91-LDA
 Gradients option       PostSCFGGA      .... off
   Density functional embedding theory  .... OFF
   NL short-range parameter             ....  6.400000
 RI-approximation to the Coulomb term is turned on
   Number of auxiliary basis functions  .... 5008
   RIJ-COSX (HFX calculated with COS-X)).... on


General Settings:
 Integral files         IntName         .... zfs
 Hartree-Fock type      HFTyp           .... UHF
 Total Charge           Charge          ....   -1
 Multiplicity           Mult            ....    3
 Number of Electrons    NEL             ....  206
 Basis Dimension        Dim             ....  728
 Nuclear Repulsion      ENuc            ....   3308.0182243876 Eh

Convergence Acceleration:
 DIIS                   CNVDIIS         .... on
   Start iteration      DIISMaxIt       ....    12
   Startup error        DIISStart       ....  0.200000
   # of expansion vecs  DIISMaxEq       ....     5
   Bias factor          DIISBfac        ....   1.050
   Max. coefficient     DIISMaxC        ....  10.000
 Newton-Raphson         CNVNR           .... off
 SOSCF                  CNVSOSCF        .... off
 Level Shifting         CNVShift        .... on
   Level shift para.    LevelShift      ....    0.2500
   Turn off err/grad.   ShiftErr        ....    0.0010
 Zerner damping         CNVZerner       .... off
 Static damping         CNVDamp         .... on
   Fraction old density DampFac         ....    0.7000
   Max. Damping (<1)    DampMax         ....    0.9800
   Min. Damping (>=0)   DampMin         ....    0.0000
   Turn off err/grad.   DampErr         ....    0.1000
 Fernandez-Rico         CNVRico         .... off

SCF Procedure:
 Maximum # iterations   MaxIter         ....   125
 SCF integral mode      SCFMode         .... Direct
   Integral package                     .... LIBINT
 Reset frequency        DirectResetFreq ....    20
 Integral Threshold     Thresh          ....  1.000e-10 Eh
 Primitive CutOff       TCut            ....  1.000e-11 Eh

Convergence Tolerance:
 Convergence Check Mode ConvCheckMode   .... Total+1el-Energy
 Convergence forced     ConvForced      .... 0
 Energy Change          TolE            ....  1.000e-06 Eh
 1-El. energy change                    ....  1.000e-03 Eh
 DIIS Error             TolErr          ....  1.000e-06


Diagonalization of the overlap matrix:
Smallest eigenvalue                        ... 1.744e-04
Time for diagonalization                   ...    0.380 sec
Threshold for overlap eigenvalues          ... 1.000e-08
Number of eigenvalues below threshold      ... 0
Time for construction of square roots      ...    0.405 sec
Total time needed                          ...    0.789 sec

---------------------
INITIAL GUESS: MOREAD
---------------------
Guess MOs are being read from file: zfs.ges
Input geometry compatible with but different from current geometry
Input basis set matches current basis set (good)
MOs were renormalized
MOs were reorthogonalized (Cholesky)
                      ------------------
                      INITIAL GUESS DONE (   0.9 sec)
                      ------------------
-------------------
DFT GRID GENERATION
-------------------

General Integration Accuracy     IntAcc      ...  4.340
Radial Grid Type                 RadialGrid  ... Gauss-Chebyshev
Angular Grid (max. acc.)         AngularGrid ... Lebedev-110
Angular grid pruning method      GridPruning ... 3 (G Style)
Weight generation scheme         WeightScheme... Becke
Basis function cutoff            BFCut       ...    1.0000e-10
Integration weight cutoff        WCut        ...    1.0000e-14
Grids for H and He will be reduced by one unit

# of grid points (after initial pruning)     ...  74998 (   0.0 sec)
# of grid points (after weights+screening)   ...  61989 (   0.1 sec)
nearest neighbour list constructed           ...    0.0 sec
Grid point re-assignment to atoms done       ...    0.0 sec
Grid point division into batches done        ...    0.1 sec
Reduced shell lists constructed in    0.1 sec

Total number of grid points                  ...    61989
Total number of batches                      ...      994
Average number of points per batch           ...       62
Average number of grid points per atom       ...      969
Average number of shells per batch           ...   224.87 (52.05%)
Average number of basis functions per batch  ...   450.73 (61.91%)
Average number of large shells per batch     ...   169.40 (75.33%)
Average number of large basis fcns per batch ...   336.87 (74.74%)
Maximum spatial batch extension              ...   2.42,  2.38,  2.29 au
Average spatial batch extension              ...   0.03,  0.02,  0.03 au

Time for grid setup =    0.468 sec

--------------------
COSX GRID GENERATION
--------------------

General Integration Accuracy     IntAcc      ...  3.340
Radial Grid Type                 RadialGrid  ... Gauss-Chebyshev
Angular Grid (max. acc.)         AngularGrid ... Lebedev-50
Angular grid pruning method      GridPruning ... 3 (G Style)
Weight generation scheme         WeightScheme... Becke
Basis function cutoff            BFCut       ...    1.0000e-10
Integration weight cutoff        WCut        ...    1.0000e-14
Grids for H and He will be reduced by one unit

# of grid points (after initial pruning)     ...  27746 (   0.0 sec)
# of grid points (after weights+screening)   ...  23098 (   0.0 sec)
nearest neighbour list constructed           ...    0.0 sec
Grid point re-assignment to atoms done       ...    0.0 sec
Grid point division into batches done        ...    0.0 sec
Reduced shell lists constructed in    0.0 sec

Total number of grid points                  ...    23098
Total number of batches                      ...      385
Average number of points per batch           ...       59
Average number of grid points per atom       ...      361
Average number of shells per batch           ...   222.29 (51.46%)
Average number of basis functions per batch  ...   444.86 (61.11%)
Average number of large shells per batch     ...   164.29 (73.91%)
Average number of large basis fcns per batch ...   329.14 (73.99%)
Maximum spatial batch extension              ...   3.21,  3.01,  2.92 au
Average spatial batch extension              ...   0.04,  0.04,  0.04 au

Overlap Fitting                  UseSFitting ... on
Constructing numerical overlap ... done (      0.0 sec)
Inverting numerical overlap    ... done (      0.0 sec)
Obtaining analytic overlap     ... done (      0.0 sec)
Final contraction and storage  ... done (      0.2 sec)


General Integration Accuracy     IntAcc      ...  3.670
Radial Grid Type                 RadialGrid  ... Gauss-Chebyshev
Angular Grid (max. acc.)         AngularGrid ... Lebedev-50
Angular grid pruning method      GridPruning ... 3 (G Style)
Weight generation scheme         WeightScheme... Becke
Basis function cutoff            BFCut       ...    1.0000e-10
Integration weight cutoff        WCut        ...    1.0000e-14
Grids for H and He will be reduced by one unit

# of grid points (after initial pruning)     ...  35464 (   0.0 sec)
# of grid points (after weights+screening)   ...  29327 (   0.0 sec)
nearest neighbour list constructed           ...    0.0 sec
Grid point re-assignment to atoms done       ...    0.0 sec
Grid point division into batches done        ...    0.0 sec
Reduced shell lists constructed in    0.0 sec

Total number of grid points                  ...    29327
Total number of batches                      ...      488
Average number of points per batch           ...       60
Average number of grid points per atom       ...      458
Average number of shells per batch           ...   220.50 (51.04%)
Average number of basis functions per batch  ...   441.50 (60.65%)
Average number of large shells per batch     ...   162.00 (73.47%)
Average number of large basis fcns per batch ...   324.75 (73.56%)
Maximum spatial batch extension              ...   3.03,  2.97,  2.73 au
Average spatial batch extension              ...   0.03,  0.04,  0.03 au

Overlap Fitting                  UseSFitting ... on
Constructing numerical overlap ... done (      0.1 sec)
Inverting numerical overlap    ... done (      0.0 sec)
Obtaining analytic overlap     ... done (      0.0 sec)
Final contraction and storage  ... done (      0.1 sec)


General Integration Accuracy     IntAcc      ...  4.010
Radial Grid Type                 RadialGrid  ... Gauss-Chebyshev
Angular Grid (max. acc.)         AngularGrid ... Lebedev-110
Angular grid pruning method      GridPruning ... 3 (G Style)
Weight generation scheme         WeightScheme... Becke
Basis function cutoff            BFCut       ...    1.0000e-10
Integration weight cutoff        WCut        ...    1.0000e-14
Grids for H and He will be reduced by one unit

# of grid points (after initial pruning)     ...  65152 (   0.0 sec)
# of grid points (after weights+screening)   ...  54184 (   0.1 sec)
nearest neighbour list constructed           ...    0.0 sec
Grid point re-assignment to atoms done       ...    0.0 sec
Grid point division into batches done        ...    0.0 sec
Reduced shell lists constructed in    0.1 sec

Total number of grid points                  ...    54184
Total number of batches                      ...      880
Average number of points per batch           ...       61
Average number of grid points per atom       ...      847
Average number of shells per batch           ...   228.57 (52.91%)
Average number of basis functions per batch  ...   459.14 (63.07%)
Average number of large shells per batch     ...   168.00 (73.50%)
Average number of large basis fcns per batch ...   334.71 (72.90%)
Maximum spatial batch extension              ...   2.60,  2.43,  2.60 au
Average spatial batch extension              ...   0.03,  0.03,  0.03 au

Overlap Fitting                  UseSFitting ... on
Constructing numerical overlap ... done (      0.1 sec)
Inverting numerical overlap    ... done (      0.0 sec)
Obtaining analytic overlap     ... done (      0.0 sec)
Final contraction and storage  ... done (      0.2 sec)

Time for X-Grid setup             =    1.943 sec
--------------
SCF ITERATIONS
--------------
ITER       Energy         Delta-E        Max-DP      RMS-DP      [F,P]     Damp
               ***  Starting incremental Fock matrix formation  ***
  0  -1102.7805956254   0.000000000000 0.11289874  0.00057368  0.1826421 0.7000
  1  -1102.9034262686  -0.122830643166 0.06367709  0.00050966  0.1291578 0.7000
                               ***Turning on DIIS***
  2  -1102.9909251983  -0.087498929739 0.16293500  0.00156546  0.0896585 0.0000
  3  -1103.1892145554  -0.198289357098 0.23279266  0.00075470  0.0114999 0.0000
  4  -1103.1915577072  -0.002343151741 0.07864170  0.00033008  0.0035069 0.0000
  5  -1103.1920423513  -0.000484644173 0.28424167  0.00102495  0.0008476 0.0000
  6  -1103.1920897482  -0.000047396810 0.09393237  0.00026914  0.0006805 0.0000
  7  -1103.1921000967  -0.000010348505 0.07601855  0.00021847  0.0003460 0.0000
  8  -1103.1921033782  -0.000003281538 0.02926950  0.00008807  0.0002384 0.0000
  9  -1103.1921061116  -0.000002733406 0.00611287  0.00002006  0.0002457 0.0000
 10  -1103.1921064140  -0.000000302394 0.00116151  0.00000648  0.0000962 0.0000
                 **** Energy Check signals convergence ****

               *****************************************************
               *                     SUCCESS                       *
               *           SCF CONVERGED AFTER  11 CYCLES          *
               *****************************************************

Setting up the final grid:

General Integration Accuracy     IntAcc      ...  4.670
Radial Grid Type                 RadialGrid  ... Gauss-Chebyshev
Angular Grid (max. acc.)         AngularGrid ... Lebedev-302
Angular grid pruning method      GridPruning ... 3 (G Style)
Weight generation scheme         WeightScheme... Becke
Basis function cutoff            BFCut       ...    1.0000e-10
Integration weight cutoff        WCut        ...    1.0000e-14
Grids for H and He will be reduced by one unit

# of grid points (after initial pruning)     ... 296120 (   0.0 sec)
# of grid points (after weights+screening)   ... 239339 (   0.2 sec)
nearest neighbour list constructed           ...    0.0 sec
Grid point re-assignment to atoms done       ...    0.0 sec
Grid point division into batches done        ...    0.8 sec
Reduced shell lists constructed in    0.9 sec

Total number of grid points                  ...   239339
Total number of batches                      ...     3766
Average number of points per batch           ...       63
Average number of grid points per atom       ...     3740
Average number of shells per batch           ...   226.96 (52.54%)
Average number of basis functions per batch  ...   457.11 (62.79%)
Average number of large shells per batch     ...   167.91 (73.98%)
Average number of large basis fcns per batch ...   332.65 (72.77%)
Maximum spatial batch extension              ...   1.70,  1.65,  1.70 au
Average spatial batch extension              ...   0.02,  0.02,  0.02 au

Final grid set up in    1.3 sec
Final integration                            ... done (   1.1 sec)
Change in XC energy                          ...     0.022708046
Integrated number of electrons               ...   206.008472691
Previous integrated no of electrons          ...   206.136491060

----------------
TOTAL SCF ENERGY
----------------

Total Energy       :        -1103.16939855 Eh          -30018.76546 eV

Components:
Nuclear Repulsion  :         3308.01822439 Eh           90015.75220 eV
Electronic Energy  :        -4411.18762294 Eh         -120034.51766 eV
One Electron Energy:        -8102.90874585 Eh         -220491.35654 eV
Two Electron Energy:         3691.72112292 Eh          100456.83888 eV

Virial components:
Potential Energy   :        -2203.33187194 Eh          -59955.70832 eV
Kinetic Energy     :         1100.16247339 Eh           29936.94287 eV
Virial Ratio       :            2.00273316


DFT components:
N(Alpha)           :      104.004484946583 electrons
N(Beta)            :      102.003987744692 electrons
N(Total)           :      206.008472691276 electrons
E(X)               :     -159.727623312712 Eh       
E(C)               :       -7.078690411993 Eh       
E(XC)              :     -166.806313724705 Eh       
DFET-embed. en.    :        0.000000000000 Eh       

---------------
SCF CONVERGENCE
---------------

  Last Energy change         ...   -1.8282e-07  Tolerance :   1.0000e-06
  Last MAX-Density change    ...    4.0179e-04  Tolerance :   1.0000e-05
  Last RMS-Density change    ...    1.8321e-06  Tolerance :   1.0000e-06
  Last DIIS Error            ...    1.1961e-05  Tolerance :   1.0000e-06

             **** THE GBW FILE WAS UPDATED (zfs.gbw) ****
             **** DENSITY FILE WAS UPDATED (zfs.scfp) ****
             **** ENERGY FILE WAS UPDATED (zfs.en.tmp) ****
----------------------
UHF SPIN CONTAMINATION
----------------------

Warning: in a DFT calculation there is little theoretical justification to 
         calculate <S**2> as in Hartree-Fock theory. We will do it anyways
         but you should keep in mind that the values have only limited relevance

Expectation value of <S**2>     :     2.010921
Ideal value S*(S+1) for S=1.0   :     2.000000
Deviation                       :     0.010921

             **** THE GBW FILE WAS UPDATED (zfs.gbw) ****
             **** DENSITY FILE WAS UPDATED (zfs.scfp) ****
----------------
ORBITAL ENERGIES
----------------
                 SPIN UP ORBITALS
  NO   OCC          E(Eh)            E(eV) 
   0   1.0000     -13.856750      -377.0613 
   1   1.0000      -9.803252      -266.7601 
   2   1.0000      -9.803221      -266.7592 
   3   1.0000      -9.803220      -266.7592 
   4   1.0000      -9.765075      -265.7212 
   5   1.0000      -9.765012      -265.7195 
   6   1.0000      -9.765012      -265.7195 
   7   1.0000      -9.764951      -265.7178 
   8   1.0000      -9.764890      -265.7162 
   9   1.0000      -9.764885      -265.7160 
  10   1.0000      -9.757893      -265.5258 
  11   1.0000      -9.757850      -265.5246 
  12   1.0000      -9.757850      -265.5246 
  13   1.0000      -9.751071      -265.3401 
  14   1.0000      -9.751022      -265.3388 
  15   1.0000      -9.751004      -265.3383 
  16   1.0000      -9.750413      -265.3222 
  17   1.0000      -9.750362      -265.3208 
  18   1.0000      -9.750346      -265.3204 
  19   1.0000      -9.741626      -265.0831 
  20   1.0000      -9.741279      -265.0737 
  21   1.0000      -9.741273      -265.0735 
  22   1.0000      -9.738181      -264.9894 
  23   1.0000      -9.738170      -264.9891 
  24   1.0000      -9.738170      -264.9891 
  25   1.0000      -9.737760      -264.9779 
  26   1.0000      -9.737752      -264.9777 
  27   1.0000      -9.737646      -264.9748 
  28   1.0000      -0.731151       -19.8956 
  29   1.0000      -0.669527       -18.2187 
  30   1.0000      -0.654180       -17.8011 
  31   1.0000      -0.654167       -17.8008 
  32   1.0000      -0.611069       -16.6280 
  33   1.0000      -0.599614       -16.3163 
  34   1.0000      -0.599456       -16.3120 
  35   1.0000      -0.584207       -15.8971 
  36   1.0000      -0.584192       -15.8967 
  37   1.0000      -0.547047       -14.8859 
  38   1.0000      -0.523024       -14.2322 
  39   1.0000      -0.522982       -14.2311 
  40   1.0000      -0.520454       -14.1623 
  41   1.0000      -0.517360       -14.0781 
  42   1.0000      -0.517180       -14.0732 
  43   1.0000      -0.503576       -13.7030 
  44   1.0000      -0.445955       -12.1351 
  45   1.0000      -0.445877       -12.1329 
  46   1.0000      -0.425282       -11.5725 
  47   1.0000      -0.406708       -11.0671 
  48   1.0000      -0.406699       -11.0668 
  49   1.0000      -0.401727       -10.9315 
  50   1.0000      -0.399290       -10.8652 
  51   1.0000      -0.385829       -10.4989 
  52   1.0000      -0.385759       -10.4970 
  53   1.0000      -0.360138        -9.7999 
  54   1.0000      -0.359411        -9.7801 
  55   1.0000      -0.359359        -9.7787 
  56   1.0000      -0.348430        -9.4813 
  57   1.0000      -0.314453        -8.5567 
  58   1.0000      -0.310472        -8.4484 
  59   1.0000      -0.310424        -8.4471 
  60   1.0000      -0.302961        -8.2440 
  61   1.0000      -0.302915        -8.2427 
  62   1.0000      -0.283760        -7.7215 
  63   1.0000      -0.280677        -7.6376 
  64   1.0000      -0.280619        -7.6360 
  65   1.0000      -0.277305        -7.5458 
  66   1.0000      -0.277302        -7.5458 
  67   1.0000      -0.244402        -6.6505 
  68   1.0000      -0.244396        -6.6504 
  69   1.0000      -0.239780        -6.5247 
  70   1.0000      -0.232830        -6.3356 
  71   1.0000      -0.229903        -6.2560 
  72   1.0000      -0.227927        -6.2022 
  73   1.0000      -0.227899        -6.2014 
  74   1.0000      -0.213940        -5.8216 
  75   1.0000      -0.213875        -5.8198 
  76   1.0000      -0.211655        -5.7594 
  77   1.0000      -0.198646        -5.4054 
  78   1.0000      -0.192243        -5.2312 
  79   1.0000      -0.192238        -5.2311 
  80   1.0000      -0.180555        -4.9132 
  81   1.0000      -0.180551        -4.9131 
  82   1.0000      -0.173012        -4.7079 
  83   1.0000      -0.168088        -4.5739 
  84   1.0000      -0.168063        -4.5732 
  85   1.0000      -0.162383        -4.4187 
  86   1.0000      -0.160361        -4.3636 
  87   1.0000      -0.157600        -4.2885 
  88   1.0000      -0.157593        -4.2883 
  89   1.0000      -0.148492        -4.0407 
  90   1.0000      -0.148424        -4.0388 
  91   1.0000      -0.136717        -3.7203 
  92   1.0000      -0.121418        -3.3039 
  93   1.0000      -0.121410        -3.3037 
  94   1.0000      -0.097032        -2.6404 
  95   1.0000      -0.097028        -2.6403 
  96   1.0000      -0.094053        -2.5593 
  97   1.0000      -0.078925        -2.1477 
  98   1.0000      -0.060265        -1.6399 
  99   1.0000      -0.058034        -1.5792 
 100   1.0000      -0.057715        -1.5705 
 101   1.0000       0.000602         0.0164 
 102   1.0000       0.045047         1.2258 
 103   1.0000       0.045053         1.2259 
 104   0.0000       0.095658         2.6030 
 105   0.0000       0.112185         3.0527 
 106   0.0000       0.115810         3.1514 
 107   0.0000       0.115826         3.1518 
 108   0.0000       0.122568         3.3352 
 109   0.0000       0.124561         3.3895 
 110   0.0000       0.124566         3.3896 
 111   0.0000       0.125204         3.4070 
 112   0.0000       0.125215         3.4073 
 113   0.0000       0.139825         3.8048 
 114   0.0000       0.139848         3.8055 
 115   0.0000       0.139910         3.8071 
 116   0.0000       0.147464         4.0127 
 117   0.0000       0.150856         4.1050 
 118   0.0000       0.150969         4.1081 
 119   0.0000       0.150972         4.1082 
 120   0.0000       0.178681         4.8622 
 121   0.0000       0.178704         4.8628 
 122   0.0000       0.181276         4.9328 
 123   0.0000       0.181872         4.9490 
 124   0.0000       0.183215         4.9855 
 125   0.0000       0.183229         4.9859 
 126   0.0000       0.189865         5.1665 
 127   0.0000       0.189875         5.1668 
 128   0.0000       0.191912         5.2222 
 129   0.0000       0.225932         6.1479 
 130   0.0000       0.225983         6.1493 
 131   0.0000       0.226874         6.1736 
 132   0.0000       0.236466         6.4346 
 133   0.0000       0.244293         6.6476 
 134   0.0000       0.248531         6.7629 
 135   0.0000       0.248533         6.7629 
 136   0.0000       0.250015         6.8033 
 137   0.0000       0.250019         6.8034 
 138   0.0000       0.274342         7.4652 
 139   0.0000       0.275195         7.4884 
 140   0.0000       0.275265         7.4903 
 141   0.0000       0.282170         7.6782 
 142   0.0000       0.282227         7.6798 
 143   0.0000       0.288986         7.8637 
 144   0.0000       0.290533         7.9058 
 145   0.0000       0.290537         7.9059 
 146   0.0000       0.294804         8.0220 
 147   0.0000       0.297067         8.0836 
 148   0.0000       0.297182         8.0867 
 149   0.0000       0.299424         8.1477 
 150   0.0000       0.307584         8.3698 
 151   0.0000       0.307619         8.3707 
 152   0.0000       0.310366         8.4455 
 153   0.0000       0.310387         8.4461 
 154   0.0000       0.311818         8.4850 
 155   0.0000       0.325512         8.8576 
 156   0.0000       0.330907         9.0044 
 157   0.0000       0.330964         9.0060 
 158   0.0000       0.340516         9.2659 
 159   0.0000       0.341918         9.3040 
 160   0.0000       0.341930         9.3044 
 161   0.0000       0.354360         9.6426 
 162   0.0000       0.354410         9.6440 
 163   0.0000       0.354414         9.6441 
 164   0.0000       0.364825         9.9274 
 165   0.0000       0.371377        10.1057 
 166   0.0000       0.371407        10.1065 
 167   0.0000       0.371948        10.1212 
 168   0.0000       0.379517        10.3272 
 169   0.0000       0.381336        10.3767 
 170   0.0000       0.381399        10.3784 
 171   0.0000       0.386347        10.5130 
 172   0.0000       0.386532        10.5181 
 173   0.0000       0.386578        10.5193 
 174   0.0000       0.391027        10.6404 
 175   0.0000       0.392732        10.6868 
 176   0.0000       0.392740        10.6870 
 177   0.0000       0.396937        10.8012 
 178   0.0000       0.396941        10.8013 
 179   0.0000       0.411368        11.1939 
 180   0.0000       0.411427        11.1955 
 181   0.0000       0.411894        11.2082 
 182   0.0000       0.426382        11.6024 
 183   0.0000       0.427080        11.6214 
 184   0.0000       0.427306        11.6276 
 185   0.0000       0.427465        11.6319 
 186   0.0000       0.429046        11.6749 
 187   0.0000       0.429082        11.6759 
 188   0.0000       0.430175        11.7057 
 189   0.0000       0.430181        11.7058 
 190   0.0000       0.434777        11.8309 
 191   0.0000       0.437311        11.8998 
 192   0.0000       0.437329        11.9003 
 193   0.0000       0.450117        12.2483 
 194   0.0000       0.459064        12.4918 
 195   0.0000       0.459064        12.4918 
 196   0.0000       0.465838        12.6761 
 197   0.0000       0.468443        12.7470 
 198   0.0000       0.470331        12.7983 
 199   0.0000       0.470332        12.7984 
 200   0.0000       0.479401        13.0452 
 201   0.0000       0.479465        13.0469 
 202   0.0000       0.496129        13.5004 
 203   0.0000       0.505547        13.7566 
 204   0.0000       0.505555        13.7568 
 205   0.0000       0.509733        13.8705 
 206   0.0000       0.514129        13.9902 
 207   0.0000       0.514160        13.9910 
 208   0.0000       0.523754        14.2521 
 209   0.0000       0.532102        14.4792 
 210   0.0000       0.534437        14.5428 
 211   0.0000       0.534508        14.5447 
 212   0.0000       0.538198        14.6451 
 213   0.0000       0.546053        14.8589 
 214   0.0000       0.546071        14.8593 
 215   0.0000       0.547779        14.9058 
 216   0.0000       0.554614        15.0918 
 217   0.0000       0.554666        15.0932 
 218   0.0000       0.554840        15.0980 
 219   0.0000       0.574094        15.6219 
 220   0.0000       0.578391        15.7388 
 221   0.0000       0.578412        15.7394 
 222   0.0000       0.588581        16.0161 
 223   0.0000       0.588649        16.0179 
 224   0.0000       0.598640        16.2898 
 225   0.0000       0.602688        16.4000 
 226   0.0000       0.602692        16.4001 
 227   0.0000       0.605544        16.4777 
 228   0.0000       0.616293        16.7702 
 229   0.0000       0.616305        16.7705 
 230   0.0000       0.618983        16.8434 
 231   0.0000       0.620644        16.8886 
 232   0.0000       0.620845        16.8940 
 233   0.0000       0.622339        16.9347 
 234   0.0000       0.624381        16.9903 
 235   0.0000       0.624468        16.9926 
 236   0.0000       0.631301        17.1786 
 237   0.0000       0.641908        17.4672 
 238   0.0000       0.641929        17.4678 
 239   0.0000       0.643398        17.5077 
 240   0.0000       0.654954        17.8222 
 241   0.0000       0.655063        17.8252 
 242   0.0000       0.662283        18.0216 
 243   0.0000       0.675419        18.3791 
 244   0.0000       0.694431        18.8964 
 245   0.0000       0.694459        18.8972 
 246   0.0000       0.699494        19.0342 
 247   0.0000       0.699535        19.0353 
 248   0.0000       0.705540        19.1987 
 249   0.0000       0.710734        19.3400 
 250   0.0000       0.711266        19.3545 
 251   0.0000       0.711367        19.3573 
 252   0.0000       0.724955        19.7270 
 253   0.0000       0.732918        19.9437 
 254   0.0000       0.735472        20.0132 
 255   0.0000       0.735534        20.0149 
 256   0.0000       0.740849        20.1595 
 257   0.0000       0.740921        20.1615 
 258   0.0000       0.754862        20.5408 
 259   0.0000       0.755007        20.5448 
 260   0.0000       0.757474        20.6119 
 261   0.0000       0.757605        20.6155 
 262   0.0000       0.757697        20.6180 
 263   0.0000       0.775204        21.0944 
 264   0.0000       0.806604        21.9488 
 265   0.0000       0.821305        22.3488 
 266   0.0000       0.850131        23.1332 
 267   0.0000       0.850257        23.1367 
 268   0.0000       0.854089        23.2410 
 269   0.0000       0.854175        23.2433 
 270   0.0000       0.891839        24.2682 
 271   0.0000       0.895946        24.3799 
 272   0.0000       0.905159        24.6306 
 273   0.0000       0.905540        24.6410 
 274   0.0000       0.910895        24.7867 
 275   0.0000       0.921366        25.0716 
 276   0.0000       0.921577        25.0774 
 277   0.0000       0.942158        25.6374 
 278   0.0000       0.949962        25.8498 
 279   0.0000       0.950156        25.8551 
 280   0.0000       0.955117        25.9900 
 281   0.0000       0.955891        26.0111 
 282   0.0000       0.956223        26.0202 
 283   0.0000       0.957878        26.0652 
 284   0.0000       0.964522        26.2460 
 285   0.0000       0.964755        26.2523 
 286   0.0000       0.983394        26.7595 
 287   0.0000       1.007726        27.4216 
 288   0.0000       1.009652        27.4740 
 289   0.0000       1.009771        27.4773 
 290   0.0000       1.013789        27.5866 
 291   0.0000       1.014435        27.6042 
 292   0.0000       1.014561        27.6076 
 293   0.0000       1.029077        28.0026 
 294   0.0000       1.029327        28.0094 
 295   0.0000       1.038641        28.2628 
 296   0.0000       1.038740        28.2655 
 297   0.0000       1.038860        28.2688 
 298   0.0000       1.045318        28.4445 
 299   0.0000       1.045344        28.4453 
 300   0.0000       1.052401        28.6373 
 301   0.0000       1.059320        28.8256 
 302   0.0000       1.059467        28.8296 
 303   0.0000       1.059827        28.8394 
 304   0.0000       1.065876        29.0040 
 305   0.0000       1.065894        29.0044 
 306   0.0000       1.067770        29.0555 
 307   0.0000       1.086634        29.5688 
 308   0.0000       1.094899        29.7937 
 309   0.0000       1.094972        29.7957 
 310   0.0000       1.122450        30.5434 
 311   0.0000       1.130134        30.7525 
 312   0.0000       1.130240        30.7554 
 313   0.0000       1.130853        30.7721 
 314   0.0000       1.134723        30.8774 
 315   0.0000       1.134954        30.8837 
 316   0.0000       1.138996        30.9936 
 317   0.0000       1.139168        30.9983 
 318   0.0000       1.139366        31.0037 
 319   0.0000       1.143189        31.1077 
 320   0.0000       1.143384        31.1131 
 321   0.0000       1.145882        31.1810 
 322   0.0000       1.145941        31.1826 
 323   0.0000       1.150397        31.3039 
 324   0.0000       1.151199        31.3257 
 325   0.0000       1.152666        31.3656 
 326   0.0000       1.152904        31.3721 
 327   0.0000       1.158637        31.5281 
 328   0.0000       1.158815        31.5330 
 329   0.0000       1.167928        31.7809 
 330   0.0000       1.203268        32.7426 
 331   0.0000       1.203844        32.7583 
 332   0.0000       1.204065        32.7643 
 333   0.0000       1.204078        32.7646 
 334   0.0000       1.207485        32.8573 
 335   0.0000       1.207549        32.8591 
 336   0.0000       1.212662        32.9982 
 337   0.0000       1.213452        33.0197 
 338   0.0000       1.213683        33.0260 
 339   0.0000       1.213818        33.0297 
 340   0.0000       1.233695        33.5706 
 341   0.0000       1.233711        33.5710 
 342   0.0000       1.246393        33.9161 
 343   0.0000       1.267352        34.4864 
 344   0.0000       1.276843        34.7447 
 345   0.0000       1.276902        34.7463 
 346   0.0000       1.280379        34.8409 
 347   0.0000       1.287279        35.0286 
 348   0.0000       1.292600        35.1734 
 349   0.0000       1.292744        35.1774 
 350   0.0000       1.305301        35.5190 
 351   0.0000       1.305472        35.5237 
 352   0.0000       1.314591        35.7718 
 353   0.0000       1.326171        36.0869 
 354   0.0000       1.327966        36.1358 
 355   0.0000       1.328242        36.1433 
 356   0.0000       1.367336        37.2071 
 357   0.0000       1.367378        37.2083 
 358   0.0000       1.380581        37.5675 
 359   0.0000       1.384477        37.6735 
 360   0.0000       1.384496        37.6741 
 361   0.0000       1.400790        38.1174 
 362   0.0000       1.402900        38.1749 
 363   0.0000       1.402948        38.1762 
 364   0.0000       1.410893        38.3924 
 365   0.0000       1.427484        38.8438 
 366   0.0000       1.427496        38.8441 
 367   0.0000       1.437145        39.1067 
 368   0.0000       1.440233        39.1907 
 369   0.0000       1.440264        39.1916 
 370   0.0000       1.453178        39.5430 
 371   0.0000       1.453196        39.5435 
 372   0.0000       1.462475        39.7960 
 373   0.0000       1.483316        40.3631 
 374   0.0000       1.486081        40.4383 
 375   0.0000       1.486143        40.4400 
 376   0.0000       1.495384        40.6915 
 377   0.0000       1.496493        40.7216 
 378   0.0000       1.496718        40.7278 
 379   0.0000       1.504905        40.9505 
 380   0.0000       1.505925        40.9783 
 381   0.0000       1.506100        40.9831 
 382   0.0000       1.510467        41.1019 
 383   0.0000       1.517114        41.2828 
 384   0.0000       1.517145        41.2836 
 385   0.0000       1.529333        41.6153 
 386   0.0000       1.532066        41.6896 
 387   0.0000       1.532336        41.6970 
 388   0.0000       1.536662        41.8147 
 389   0.0000       1.537433        41.8357 
 390   0.0000       1.537514        41.8379 
 391   0.0000       1.552701        42.2512 
 392   0.0000       1.564569        42.5741 
 393   0.0000       1.564676        42.5770 
 394   0.0000       1.565293        42.5938 
 395   0.0000       1.570060        42.7235 
 396   0.0000       1.570194        42.7272 
 397   0.0000       1.581941        43.0468 
 398   0.0000       1.597641        43.4740 
 399   0.0000       1.597749        43.4770 
 400   0.0000       1.610213        43.8161 
 401   0.0000       1.614694        43.9381 
 402   0.0000       1.614829        43.9417 
 403   0.0000       1.618663        44.0461 
 404   0.0000       1.640478        44.6397 
 405   0.0000       1.644762        44.7562 
 406   0.0000       1.650107        44.9017 
 407   0.0000       1.650235        44.9052 
 408   0.0000       1.661754        45.2186 
 409   0.0000       1.661879        45.2220 
 410   0.0000       1.667117        45.3646 
 411   0.0000       1.667191        45.3666 
 412   0.0000       1.685108        45.8541 
 413   0.0000       1.685323        45.8600 
 414   0.0000       1.686712        45.8978 
 415   0.0000       1.686787        45.8998 
 416   0.0000       1.686958        45.9045 
 417   0.0000       1.706124        46.4260 
 418   0.0000       1.730217        47.0816 
 419   0.0000       1.730327        47.0846 
 420   0.0000       1.733918        47.1823 
 421   0.0000       1.742812        47.4243 
 422   0.0000       1.742879        47.4262 
 423   0.0000       1.747761        47.5590 
 424   0.0000       1.751340        47.6564 
 425   0.0000       1.751772        47.6682 
 426   0.0000       1.762207        47.9521 
 427   0.0000       1.762278        47.9540 
 428   0.0000       1.779943        48.4347 
 429   0.0000       1.798703        48.9452 
 430   0.0000       1.799859        48.9767 
 431   0.0000       1.805238        49.1230 
 432   0.0000       1.805270        49.1239 
 433   0.0000       1.810439        49.2645 
 434   0.0000       1.810730        49.2725 
 435   0.0000       1.817090        49.4455 
 436   0.0000       1.817170        49.4477 
 437   0.0000       1.823006        49.6065 
 438   0.0000       1.830199        49.8022 
 439   0.0000       1.830473        49.8097 
 440   0.0000       1.833374        49.8886 
 441   0.0000       1.839033        50.0426 
 442   0.0000       1.839046        50.0430 
 443   0.0000       1.849540        50.3285 
 444   0.0000       1.853742        50.4429 
 445   0.0000       1.853800        50.4445 
 446   0.0000       1.855005        50.4773 
 447   0.0000       1.856156        50.5086 
 448   0.0000       1.856192        50.5095 
 449   0.0000       1.867443        50.8157 
 450   0.0000       1.903449        51.7955 
 451   0.0000       1.904004        51.8106 
 452   0.0000       1.904038        51.8115 
 453   0.0000       1.924098        52.3574 
 454   0.0000       1.928493        52.4770 
 455   0.0000       1.930705        52.5372 
 456   0.0000       1.937233        52.7148 
 457   0.0000       1.937425        52.7200 
 458   0.0000       1.942085        52.8468 
 459   0.0000       1.942310        52.8530 
 460   0.0000       1.948449        53.0200 
 461   0.0000       1.948488        53.0211 
 462   0.0000       1.965163        53.4748 
 463   0.0000       1.966131        53.5012 
 464   0.0000       1.969203        53.5847 
 465   0.0000       1.969260        53.5863 
 466   0.0000       1.990720        54.1702 
 467   0.0000       1.995723        54.3064 
 468   0.0000       1.995750        54.3071 
 469   0.0000       2.005037        54.5598 
 470   0.0000       2.005105        54.5617 
 471   0.0000       2.013082        54.7787 
 472   0.0000       2.014746        54.8240 
 473   0.0000       2.014993        54.8308 
 474   0.0000       2.022891        55.0457 
 475   0.0000       2.031759        55.2870 
 476   0.0000       2.032078        55.2956 
 477   0.0000       2.038088        55.4592 
 478   0.0000       2.038151        55.4609 
 479   0.0000       2.042064        55.5674 
 480   0.0000       2.050350        55.7928 
 481   0.0000       2.050624        55.8003 
 482   0.0000       2.066742        56.2389 
 483   0.0000       2.080041        56.6008 
 484   0.0000       2.082064        56.6559 
 485   0.0000       2.085699        56.7547 
 486   0.0000       2.085762        56.7565 
 487   0.0000       2.102108        57.2013 
 488   0.0000       2.102351        57.2079 
 489   0.0000       2.109792        57.4104 
 490   0.0000       2.116842        57.6022 
 491   0.0000       2.116874        57.6031 
 492   0.0000       2.123403        57.7807 
 493   0.0000       2.124725        57.8167 
 494   0.0000       2.124804        57.8189 
 495   0.0000       2.148778        58.4712 
 496   0.0000       2.161332        58.8128 
 497   0.0000       2.177110        59.2422 
 498   0.0000       2.177531        59.2536 
 499   0.0000       2.191625        59.6372 
 500   0.0000       2.205549        60.0160 
 501   0.0000       2.211674        60.1827 
 502   0.0000       2.211714        60.1838 
 503   0.0000       2.222646        60.4813 
 504   0.0000       2.223405        60.5019 
 505   0.0000       2.223465        60.5036 
 506   0.0000       2.227311        60.6082 
 507   0.0000       2.227677        60.6182 
 508   0.0000       2.248607        61.1877 
 509   0.0000       2.248866        61.1948 
 510   0.0000       2.272358        61.8340 
 511   0.0000       2.272434        61.8361 
 512   0.0000       2.289356        62.2966 
 513   0.0000       2.293553        62.4107 
 514   0.0000       2.305984        62.7490 
 515   0.0000       2.306266        62.7567 
 516   0.0000       2.311792        62.9071 
 517   0.0000       2.323203        63.2176 
 518   0.0000       2.346101        63.8407 
 519   0.0000       2.346209        63.8436 
 520   0.0000       2.356694        64.1289 
 521   0.0000       2.357540        64.1519 
 522   0.0000       2.357762        64.1580 
 523   0.0000       2.392418        65.1010 
 524   0.0000       2.392509        65.1035 
 525   0.0000       2.414416        65.6996 
 526   0.0000       2.420570        65.8670 
 527   0.0000       2.420706        65.8708 
 528   0.0000       2.423910        65.9579 
 529   0.0000       2.433230        66.2116 
 530   0.0000       2.433397        66.2161 
 531   0.0000       2.444724        66.5243 
 532   0.0000       2.454769        66.7977 
 533   0.0000       2.454934        66.8022 
 534   0.0000       2.465913        67.1009 
 535   0.0000       2.465945        67.1018 
 536   0.0000       2.471468        67.2521 
 537   0.0000       2.477152        67.4067 
 538   0.0000       2.509016        68.2738 
 539   0.0000       2.509351        68.2829 
 540   0.0000       2.520038        68.5737 
 541   0.0000       2.549722        69.3815 
 542   0.0000       2.563133        69.7464 
 543   0.0000       2.563299        69.7509 
 544   0.0000       2.581551        70.2476 
 545   0.0000       2.586291        70.3765 
 546   0.0000       2.597889        70.6922 
 547   0.0000       2.598181        70.7001 
 548   0.0000       2.614918        71.1555 
 549   0.0000       2.615114        71.1609 
 550   0.0000       2.630802        71.5878 
 551   0.0000       2.631546        71.6080 
 552   0.0000       2.631633        71.6104 
 553   0.0000       2.669597        72.6434 
 554   0.0000       2.680439        72.9385 
 555   0.0000       2.693485        73.2934 
 556   0.0000       2.693812        73.3024 
 557   0.0000       2.737743        74.4978 
 558   0.0000       2.743555        74.6559 
 559   0.0000       2.745725        74.7150 
 560   0.0000       2.745737        74.7153 
 561   0.0000       2.755740        74.9875 
 562   0.0000       2.755806        74.9893 
 563   0.0000       2.766440        75.2787 
 564   0.0000       2.766584        75.2826 
 565   0.0000       2.776173        75.5435 
 566   0.0000       2.784189        75.7616 
 567   0.0000       2.784497        75.7700 
[...]
 521( 0) :     2.357529 a.u.    64.152 eV
 522( 0) :     2.357751 a.u.    64.158 eV
 523( 0) :     2.392401 a.u.    65.101 eV
 524( 0) :     2.392491 a.u.    65.103 eV
 525( 0) :     2.414402 a.u.    65.699 eV
 526( 0) :     2.420555 a.u.    65.867 eV
 527( 0) :     2.420691 a.u.    65.870 eV
 528( 0) :     2.423893 a.u.    65.957 eV
 529( 0) :     2.433217 a.u.    66.211 eV
 530( 0) :     2.433384 a.u.    66.216 eV
 531( 0) :     2.444712 a.u.    66.524 eV
 532( 0) :     2.454754 a.u.    66.797 eV
 533( 0) :     2.454919 a.u.    66.802 eV
 534( 0) :     2.465905 a.u.    67.101 eV
 535( 0) :     2.465937 a.u.    67.102 eV
 536( 0) :     2.471456 a.u.    67.252 eV
 537( 0) :     2.477137 a.u.    67.406 eV
 538( 0) :     2.509004 a.u.    68.273 eV
 539( 0) :     2.509339 a.u.    68.283 eV
 540( 0) :     2.520022 a.u.    68.573 eV
 541( 0) :     2.549711 a.u.    69.381 eV
 542( 0) :     2.563126 a.u.    69.746 eV
 543( 0) :     2.563292 a.u.    69.751 eV
 544( 0) :     2.581540 a.u.    70.247 eV
 545( 0) :     2.586283 a.u.    70.376 eV
 546( 0) :     2.597886 a.u.    70.692 eV
 547( 0) :     2.598178 a.u.    70.700 eV
 548( 0) :     2.614899 a.u.    71.155 eV
 549( 0) :     2.615095 a.u.    71.160 eV
 550( 0) :     2.630788 a.u.    71.587 eV
 551( 0) :     2.631543 a.u.    71.608 eV
 552( 0) :     2.631630 a.u.    71.610 eV
 553( 0) :     2.669583 a.u.    72.643 eV
 554( 0) :     2.680436 a.u.    72.938 eV
 555( 0) :     2.693479 a.u.    73.293 eV
 556( 0) :     2.693807 a.u.    73.302 eV
 557( 0) :     2.737740 a.u.    74.498 eV
 558( 0) :     2.743544 a.u.    74.656 eV
 559( 0) :     2.745716 a.u.    74.715 eV
 560( 0) :     2.745728 a.u.    74.715 eV
 561( 0) :     2.755723 a.u.    74.987 eV
 562( 0) :     2.755789 a.u.    74.989 eV
 563( 0) :     2.766429 a.u.    75.278 eV
 564( 0) :     2.766572 a.u.    75.282 eV
 565( 0) :     2.776166 a.u.    75.543 eV
 566( 0) :     2.784173 a.u.    75.761 eV
 567( 0) :     2.784481 a.u.    75.770 eV
 568( 0) :     2.789530 a.u.    75.907 eV
 569( 0) :     2.794433 a.u.    76.040 eV
 570( 0) :     2.794483 a.u.    76.042 eV
 571( 0) :     2.796887 a.u.    76.107 eV
 572( 0) :     2.816694 a.u.    76.646 eV
 573( 0) :     2.817494 a.u.    76.668 eV
 574( 0) :     2.854317 a.u.    77.670 eV
 575( 0) :     2.857522 a.u.    77.757 eV
 576( 0) :     2.858253 a.u.    77.777 eV
 577( 0) :     2.872882 a.u.    78.175 eV
 578( 0) :     2.872995 a.u.    78.178 eV
 579( 0) :     2.907672 a.u.    79.122 eV
 580( 0) :     2.908420 a.u.    79.142 eV
 581( 0) :     2.921591 a.u.    79.501 eV
 582( 0) :     2.921750 a.u.    79.505 eV
 583( 0) :     2.924569 a.u.    79.582 eV
 584( 0) :     2.929331 a.u.    79.711 eV
 585( 0) :     2.959874 a.u.    80.542 eV
 586( 0) :     2.960942 a.u.    80.571 eV
 587( 0) :     2.972281 a.u.    80.880 eV
 588( 0) :     2.983567 a.u.    81.187 eV
 589( 0) :     2.983636 a.u.    81.189 eV
 590( 0) :     3.060186 a.u.    83.272 eV
 591( 0) :     3.060581 a.u.    83.283 eV
 592( 0) :     3.064047 a.u.    83.377 eV
 593( 0) :     3.136803 a.u.    85.357 eV
 594( 0) :     3.801785 a.u.   103.452 eV
 595( 0) :     3.807061 a.u.   103.595 eV
 596( 0) :     3.836920 a.u.   104.408 eV
 597( 0) :     3.851649 a.u.   104.809 eV
 598( 0) :     3.887128 a.u.   105.774 eV
 599( 0) :     3.887598 a.u.   105.787 eV
 600( 0) :     5.167124 a.u.   140.605 eV
 601( 0) :     5.167152 a.u.   140.605 eV
 602( 0) :     5.175863 a.u.   140.842 eV
 603( 0) :     5.181333 a.u.   140.991 eV
 604( 0) :     5.181826 a.u.   141.005 eV
 605( 0) :     5.183946 a.u.   141.062 eV
 606( 0) :     5.279929 a.u.   143.674 eV
 607( 0) :     5.279970 a.u.   143.675 eV
 608( 0) :     5.285103 a.u.   143.815 eV
 609( 0) :     5.286576 a.u.   143.855 eV
 610( 0) :     5.286614 a.u.   143.856 eV
 611( 0) :     5.288090 a.u.   143.896 eV
 612( 0) :     5.297382 a.u.   144.149 eV
 613( 0) :     5.297455 a.u.   144.151 eV
 614( 0) :     5.299005 a.u.   144.193 eV
 615( 0) :     5.317341 a.u.   144.692 eV
 616( 0) :     5.317426 a.u.   144.695 eV
 617( 0) :     5.336821 a.u.   145.222 eV
 618( 0) :     5.369483 a.u.   146.111 eV
 619( 0) :     5.369529 a.u.   146.112 eV
 620( 0) :     5.381565 a.u.   146.440 eV
 621( 0) :     5.398466 a.u.   146.900 eV
 622( 0) :     5.398768 a.u.   146.908 eV
 623( 0) :     5.402416 a.u.   147.007 eV
 624( 0) :     5.416214 a.u.   147.383 eV
 625( 0) :     5.455045 a.u.   148.439 eV
 626( 0) :     5.455528 a.u.   148.452 eV
 627( 0) :     5.455751 a.u.   148.459 eV
 628( 0) :     5.486361 a.u.   149.291 eV
 629( 0) :     5.487406 a.u.   149.320 eV
 630( 0) :     5.487481 a.u.   149.322 eV
 631( 0) :     5.506942 a.u.   149.852 eV
 632( 0) :     5.520274 a.u.   150.214 eV
 633( 0) :     5.521318 a.u.   150.243 eV
 634( 0) :     5.545588 a.u.   150.903 eV
 635( 0) :     5.545748 a.u.   150.907 eV
 636( 0) :     5.556612 a.u.   151.203 eV
 637( 0) :     5.588451 a.u.   152.069 eV
 638( 0) :     5.591171 a.u.   152.143 eV
 639( 0) :     5.591254 a.u.   152.146 eV
 640( 0) :     5.649893 a.u.   153.741 eV
 641( 0) :     5.649959 a.u.   153.743 eV
 642( 0) :     5.671652 a.u.   154.333 eV
 643( 0) :     5.729435 a.u.   155.906 eV
 644( 0) :     5.730148 a.u.   155.925 eV
 645( 0) :     5.745368 a.u.   156.339 eV
 646( 0) :     5.751684 a.u.   156.511 eV
 647( 0) :     5.758355 a.u.   156.693 eV
 648( 0) :     5.758477 a.u.   156.696 eV
 649( 0) :     5.838741 a.u.   158.880 eV
 650( 0) :     5.838800 a.u.   158.882 eV
 651( 0) :     5.894726 a.u.   160.404 eV
 652( 0) :     5.990208 a.u.   163.002 eV
 653( 0) :     5.990313 a.u.   163.005 eV
 654( 0) :     6.075400 a.u.   165.320 eV
 655( 0) :     6.075479 a.u.   165.322 eV
 656( 0) :     6.086140 a.u.   165.612 eV
 657( 0) :     6.095817 a.u.   165.876 eV
 658( 0) :     6.106133 a.u.   166.156 eV
 659( 0) :     6.106157 a.u.   166.157 eV
 660( 0) :     6.115744 a.u.   166.418 eV
 661( 0) :     6.116113 a.u.   166.428 eV
 662( 0) :     6.123089 a.u.   166.618 eV
 663( 0) :     7.459320 a.u.   202.978 eV
 664( 0) :    29.647713 a.u.   806.755 eV
 665( 0) :    29.715618 a.u.   808.603 eV
 666( 0) :    29.715632 a.u.   808.603 eV
 667( 0) :    29.781411 a.u.   810.393 eV
 668( 0) :    29.791706 a.u.   810.674 eV
 669( 0) :    29.791763 a.u.   810.675 eV
 670( 0) :    29.830605 a.u.   811.732 eV
 671( 0) :    30.008797 a.u.   816.581 eV
 672( 0) :    30.009222 a.u.   816.592 eV
 673( 0) :    30.017028 a.u.   816.805 eV
 674( 0) :    30.034003 a.u.   817.267 eV
 675( 0) :    30.039848 a.u.   817.426 eV
 676( 0) :    30.040020 a.u.   817.430 eV
 677( 0) :    30.107025 a.u.   819.254 eV
 678( 0) :    30.107080 a.u.   819.255 eV
 679( 0) :    30.147919 a.u.   820.367 eV
 680( 0) :    30.239057 a.u.   822.847 eV
 681( 0) :    30.239104 a.u.   822.848 eV
 682( 0) :    30.294494 a.u.   824.355 eV
 683( 0) :    30.294501 a.u.   824.355 eV
 684( 0) :    30.317593 a.u.   824.984 eV
 685( 0) :    30.320224 a.u.   825.055 eV
 686( 0) :    30.327959 a.u.   825.266 eV
 687( 0) :    30.327996 a.u.   825.267 eV
 688( 0) :    30.332774 a.u.   825.397 eV
 689( 0) :    30.337158 a.u.   825.516 eV
 690( 0) :    30.337273 a.u.   825.519 eV
 691( 0) :    36.672991 a.u.   997.923 eV
 692( 0) :    36.681122 a.u.   998.144 eV
 693( 0) :    36.681207 a.u.   998.146 eV
 694( 0) :    36.763239 a.u.  1000.379 eV
 695( 0) :    36.765304 a.u.  1000.435 eV
 696( 0) :    36.773762 a.u.  1000.665 eV
 697( 0) :    36.862112 a.u.  1003.069 eV
 698( 0) :    36.877863 a.u.  1003.498 eV
 699( 0) :    36.878026 a.u.  1003.502 eV
 700( 0) :    36.892223 a.u.  1003.888 eV
 701( 0) :    36.892288 a.u.  1003.890 eV
 702( 0) :    36.892386 a.u.  1003.893 eV
 703( 0) :    36.893404 a.u.  1003.921 eV
 704( 0) :    36.904439 a.u.  1004.221 eV
 705( 0) :    36.904676 a.u.  1004.227 eV
 706( 0) :    36.907783 a.u.  1004.312 eV
 707( 0) :    36.907950 a.u.  1004.316 eV
 708( 0) :    36.937887 a.u.  1005.131 eV
 709( 0) :    36.961035 a.u.  1005.761 eV
 710( 0) :    36.961089 a.u.  1005.762 eV
 711( 0) :    36.977981 a.u.  1006.222 eV
 712( 0) :    36.986782 a.u.  1006.462 eV
 713( 0) :    37.011361 a.u.  1007.130 eV
 714( 0) :    37.011789 a.u.  1007.142 eV
 715( 0) :    37.014647 a.u.  1007.220 eV
 716( 0) :    37.026132 a.u.  1007.532 eV
 717( 0) :    37.031785 a.u.  1007.686 eV
 718( 0) :    37.104328 a.u.  1009.660 eV
 719( 0) :    37.104768 a.u.  1009.672 eV
 720( 0) :    37.110648 a.u.  1009.832 eV
 721( 0) :    37.246012 a.u.  1013.516 eV
 722( 0) :    37.254087 a.u.  1013.735 eV
 723( 0) :    37.269690 a.u.  1014.160 eV
 724( 0) :    37.358468 a.u.  1016.576 eV
 725( 0) :    37.371156 a.u.  1016.921 eV
 726( 0) :    37.371241 a.u.  1016.923 eV
 727( 0) :    41.162367 a.u.  1120.085 eV
-------
TIMINGS
-------

Total SCF time: 0 days 0 hours 1 min 5 sec 

Total time                  ....      65.341 sec
Sum of individual times     ....      60.882 sec  ( 93.2%)

Fock matrix formation       ....      40.009 sec  ( 61.2%)
  Split-RI-J                ....      20.558 sec  ( 51.4% of F)
  XC integration            ....      11.308 sec  ( 28.3% of F)
    Basis function eval.    ....       0.299 sec  (  2.6% of XC)
    Density eval.           ....       1.275 sec  ( 11.3% of XC)
    XC-Functional eval.     ....       0.466 sec  (  4.1% of XC)
    XC-Potential eval.      ....       1.003 sec  (  8.9% of XC)
Diagonalization             ....       6.894 sec  ( 10.6%)
Density matrix formation    ....       0.517 sec  (  0.8%)
Population analysis         ....       4.463 sec  (  6.8%)
Initial guess               ....       0.855 sec  (  1.3%)
Orbital Transformation      ....       0.000 sec  (  0.0%)
Orbital Orthonormalization  ....       0.490 sec  (  0.7%)
DIIS solution               ....       4.389 sec  (  6.7%)
Grid generation             ....       3.755 sec  (  5.7%)

-------------------------   --------------------
FINAL SINGLE POINT ENERGY     -1103.169398550590
-------------------------   --------------------

   --->>> SOC part of D-tensor requested, so NeedSOC=true

                            ***************************************
                            *     ORCA property calculations      *
                            ***************************************

                                    ---------------------
                                    Active property flags
                                    ---------------------
   (+) Dipole Moment
   (+) D-tensor
   (+) Spin-Orbit Integrals are needed


------------------------------------------------------------------------------
                       ORCA ELECTRIC PROPERTIES CALCULATION
------------------------------------------------------------------------------

Dipole Moment Calculation                       ... on
Quadrupole Moment Calculation                   ... off
Polarizability Calculation                      ... off
GBWName                                         ... zfs.gbw
Electron density file                           ... zfs.scfp
The origin for moment calculation is the CENTER OF MASS  = (13.477258, 13.477285 13.477257)

-------------
DIPOLE MOMENT
-------------
                                X             Y             Z
Electronic contribution:     -0.62875      -0.63198      -0.62863
Nuclear contribution   :      0.18839       0.19299       0.18822
                        -----------------------------------------
Total Dipole Moment    :     -0.44035      -0.43899      -0.44041
                        -----------------------------------------
Magnitude (a.u.)       :      0.76196
Magnitude (Debye)      :      1.93674



--------------------
Rotational spectrum 
--------------------
 
Rotational constants in cm-1:     0.009246     0.009141     0.009141 
Rotational constants in MHz :   277.183012   274.048569   274.045290 

 Dipole components along the rotational axes: 
x,y,z [a.u.] :    -0.761958    -0.000567     0.000048 
x,y,z [Debye]:    -1.936743    -0.001441     0.000122 

 


           ************************************************************
           *        Program running with 72 parallel MPI-processes    *
           *              working on a shared directory               *
           ************************************************************
------------------------------------------------------------------------------
                         ORCA SPIN-ORBIT COUPLING CALCULATION
------------------------------------------------------------------------------

GBW file                                    ... zfs.gbw
Input density                               ... zfs.scfp
Output integrals                            ... zfs
Operator type                               ... Mean-field/Effective potential
   One-Electron Terms                       ... 1
   Coulomb Contribution                     ... 2
   Exchange Contribution                    ... 3
   Correlation Contribution                 ... 0
   Maximum number of centers                ... 4
Setting up the integration grid             ... done
Evaluating density on the grid              ... (NumEl=  206.136491) done
Evaluating Coulomb term semi-analytically   ... done
One-Center Exchange (+SOO)                  ... done
Evaluating the spin-orbit operator          ... done
Total time for SOC: 72.237


           ************************************************************
           *        Program running with 72 parallel MPI-processes    *
           *              working on a shared directory               *
           ************************************************************
------------------------------------------------------------------------------
                                ORCA EPR/NMR CALCULATION
------------------------------------------------------------------------------

GBWName                      ... zfs.gbw
Electron density file        ... zfs.scfp
Spin density file            ... zfs.scfr
Spin-orbit integrals         ... zfs
Multiplicity                 ... 3
g-tensor                     ... 0
NMR chemical shifts          ... 0
D-tensor                     ... spin-spin and spin-orbit
D(SS)-algorithm              ... spin-density from UNOs
D(SOC)-algorithm             ... CP (=Coupled-perturbed)
Active orbitals for UNO spin density= 102 .. 103

Starting the spin-spin zero-field-splitting computation (UNO)...
                        ... done with spin-spin calculation

Starting the spin-orbit zero-field-splitting computation (CP)...
Transforming integrals                       ... Max(Pert)=   5.4503e-06
Warning: Perturbation too small - adjusting
Transforming integrals                       ... Max(Pert)=   5.9354e-05
Warning: Perturbation too small - adjusting
Transforming integrals                       ... Max(Pert)=   6.4636e-04
Warning: Perturbation too small - adjusting
Transforming integrals                       ... Max(Pert)=   7.0389e-03
done
    ... no HF exchange - skipping linear equations
ZFS-Tensor - using the prefactors
   -1/(4S**2) for same spin
    1/(2*S*(2*S-1)) for alpha->beta
    1/((S+1)*(2*S+1)) for beta->alpha
                        ... done with spin-orbit calculation

---------------------------
ZERO-FIELD-SPLITTING TENSOR
---------------------------

raw-matrix : 
   0.042268     0.021785     0.021785  
   0.021785     0.042272     0.021784  
   0.021785     0.021784     0.042268  

Tensor is right-handed
diagonalized D matrix : 
   0.020483     0.020487     0.085839  

   0.745190     0.333723    -0.577340  
  -0.083592    -0.812192    -0.577370  
  -0.661592     0.478511    -0.577341  


Direction X=1 Y=0 Z=2
D   =     0.065354  cm**-1
E/D =     0.000032

SPIN-SPIN-PART
                   0          1          2    
      0      -0.000002   0.021293   0.021294
      1       0.021293   0.000003   0.021293
      2       0.021294   0.021293  -0.000001
Exchange and Coulomb parts of SS (raw)
Coulomb
                   0          1          2    
      0       0.001526   0.017299   0.012592
      1       0.017299  -0.003187   0.017167
      2       0.012592   0.017167   0.001662
Exchange
                   0          1          2    
      0      -0.001527   0.003995   0.008702
      1       0.003995   0.003190   0.004126
      2       0.008702   0.004126  -0.001663
One-, two-, three- and four-center SS contributions (raw)
One-Center            (AA|AA):
                   0          1          2    
      0       0.000003   0.001568   0.001573
      1       0.001568  -0.000007   0.001568
      2       0.001573   0.001568   0.000004
Two-Center-Coulomb    (AA|BB):
                   0          1          2    
      0      -0.000069   0.390791   0.391188
      1       0.390791   0.000133   0.390817
      2       0.391188   0.390817  -0.000064
Two-Center-Exchange   (AB|BA):
                   0          1          2    
      0       0.000010   0.017562   0.017541
      1       0.017562  -0.000020   0.017561
      2       0.017541   0.017561   0.000010
Two-Center-hybrid     (AA|AB):
                   0          1          2    
      0      -0.000015  -0.001490  -0.001507
      1      -0.001490   0.000033  -0.001489
      2      -0.001507  -0.001489  -0.000018
Three-Center-Coulomb  (AA|BC):
                   0          1          2    
      0       0.000141  -0.675526  -0.676221
      1      -0.675526  -0.000278  -0.675578
      2      -0.676221  -0.675578   0.000136
Three-Center-Exchange (AB|AC):
                   0          1          2    
      0       0.000002  -0.000637  -0.000593
      1      -0.000637  -0.000005  -0.000635
      2      -0.000593  -0.000635   0.000003
Four-Center           (AB|CD):
                   0          1          2    
      0      -0.000073   0.289025   0.289313
      1       0.289025   0.000146   0.289049
      2       0.289313   0.289049  -0.000073
ALPHA-PART
                   0          1          2    
      0      -0.111945   0.001577   0.001578
      1       0.001577  -0.111948   0.001577
      2       0.001578   0.001577  -0.111945
BETA-PART
                   0          1          2    
      0      -0.109260   0.002204   0.002204
      1       0.002204  -0.109262   0.002204
      2       0.002204   0.002204  -0.109260
ALPHA->BETA-PART
                   0          1          2    
      0       0.227641  -0.002486  -0.002487
      1      -0.002486   0.227647  -0.002486
      2      -0.002487  -0.002486   0.227642
BETA->ALPHA-PART
                   0          1          2    
      0       0.035832  -0.000803  -0.000803
      1      -0.000803   0.035833  -0.000803
      2      -0.000803  -0.000803   0.035832

Individual contributions (in cm**-1)
                                   D         E
SPIN-SPIN                  :   0.06388    0.00000
  Exchange vs Coulomb
  Coulomb                  :   0.04706   -0.00457
  Exchange                 :   0.01682    0.00457
  One through four center contributions:
  1-center                 :   0.00471   -0.00000
  2-center-Coulomb         :   1.17280    0.00031
  2-center-Exchange        :   0.05266   -0.00002
  2-center-Hybrid          :  -0.00449    0.00000
  3-center-Coulomb         :  -2.02732   -0.00057
  3-center-Exchange        :  -0.00186    0.00003
  4-center                 :   0.86739    0.00025
SPIN-ORBIT                 :   0.00147    0.00000
SOMO->VMO  (alpha->alpha)  :   0.00473   -0.00000
DOMO->SOMO (beta ->beta )  :   0.00661   -0.00000
SOMO->SOMO (alpha->beta )  :  -0.00746    0.00000
DOMO->VMO  (beta ->alpha)  :  -0.00241    0.00000


Timings for individual modules:

Sum of individual times         ...      275.501 sec (=   4.592 min)
GTO integral calculation        ...       20.635 sec (=   0.344 min)   7.5 %
Spin-Orbit-Coupling Matrices    ...       72.204 sec (=   1.203 min)  26.2 %
SCF iterations                  ...       76.763 sec (=   1.279 min)  27.9 %
EPR/NMR calculation             ...      105.899 sec (=   1.765 min)  38.4 %
                             ****ORCA TERMINATED NORMALLY****
TOTAL RUN TIME: 0 days 0 hours 5 minutes 1 seconds 201 msec
