
     Program PWSCF v.6.1 (svn rev. 13369) starts on  9Mar2020 at 17:19:46 

     This program is part of the open-source Quantum ESPRESSO suite
     for quantum simulation of materials; please cite
         "P. Giannozzi et al., J. Phys.:Condens. Matter 21 395502 (2009);
          URL http://www.quantum-espresso.org", 
     in publications or presentations arising from this work. More details at
     http://www.quantum-espresso.org/quote

     Parallel version (MPI), running on   360 processors
     K-points division:     npool     =      10
     R & G space division:  proc/nbgrp/npool/nimage =      36
     Reading input from relax.in

     Current dimensions of program PWSCF are:
     Max number of different atomic species (ntypx) = 10
     Max number of k-points (npk) =  40000
     Max angular momentum in pseudopotentials (lmaxx) =  3

     Subspace diagonalization in iterative solution of the eigenvalue problem:
     one sub-group per band group will be used
     scalapack distributed-memory algorithm (size of sub-group:  6*  6 procs)

 
     Parallelization info
     --------------------
     sticks:   dense  smooth     PW     G-vecs:    dense   smooth      PW
     Min         422     422    109                35974    35974    4737
     Max         423     423    110                35979    35979    4740
     Sum       15199   15199   3931              1295129  1295129  170579
 


     bravais-lattice index     =            0
     lattice parameter (alat)  =      33.2346  a.u.
     unit-cell volume          =   27114.5224 (a.u.)^3
     number of atoms/cell      =           97
     number of atomic types    =            3
     number of electrons       =       397.00
     number of Kohn-Sham states=          220
     kinetic-energy cutoff     =      50.0000  Ry
     charge density cutoff     =     200.0000  Ry
     convergence threshold     =      1.0E-08
     mixing beta               =       0.7000
     number of iterations used =            8  plain     mixing
     Exchange-correlation      = PBE ( 1  4  3  4 0 0)
     nstep                     =           50


     celldm(1)=  33.234606  celldm(2)=   0.000000  celldm(3)=   0.000000
     celldm(4)=   0.000000  celldm(5)=   0.000000  celldm(6)=   0.000000

     crystal axes: (cart. coord. in units of alat)
               a(1) = (   1.000000   0.000000   0.000000 )  
               a(2) = (  -0.500000   0.866026   0.000000 )  
               a(3) = (   0.000000   0.000000   0.852903 )  

     reciprocal axes: (cart. coord. in units 2 pi/alat)
               b(1) = (  1.000000  0.577350  0.000000 )  
               b(2) = (  0.000000  1.154700  0.000000 )  
               b(3) = (  0.000000  0.000000  1.172466 )  


     PseudoPot. # 1 for B  read from file:
     /g/g13/smart8/Pseudo/B_ONCV_PBE-1.0.upf
     MD5 check sum: a9fd2462c33df863cd3ce8a66ea40380
     Pseudo is Norm-conserving, Zval =  3.0
     Generated using ONCVPSP code by D. R. Hamann
     Using radial grid of 1534 points,  4 beta functions with: 
                l(1) =   0
                l(2) =   0
                l(3) =   1
                l(4) =   1

     PseudoPot. # 2 for N  read from file:
     /g/g13/smart8/Pseudo/N_ONCV_PBE-1.0.upf
     MD5 check sum: 09890da6b2972017450f7114a6086fad
     Pseudo is Norm-conserving, Zval =  5.0
     Generated using ONCVPSP code by D. R. Hamann
     Using radial grid of 1058 points,  4 beta functions with: 
                l(1) =   0
                l(2) =   0
                l(3) =   1
                l(4) =   1

     PseudoPot. # 3 for Ti read from file:
     /g/g13/smart8/Pseudo/Ti_ONCV_PBE-1.0.upf
     MD5 check sum: 4c1f1eb84d597b0c1f6d2d217b0e28bb
     Pseudo is Norm-conserving, Zval = 12.0
     Generated using ONCVPSP code by D. R. Hamann
     Using radial grid of 1586 points,  6 beta functions with: 
                l(1) =   0
                l(2) =   0
                l(3) =   1
                l(4) =   1
                l(5) =   2
                l(6) =   2

     atomic species   valence    mass     pseudopotential
        B              3.00    10.81100     B ( 1.00)
        N              5.00    14.00674     N ( 1.00)
        Ti            12.00    47.86700     Ti( 1.00)

     Starting magnetic structure 
     atomic species   magnetization
        B            0.000
        N            0.000
        Ti           1.000

     No symmetry found


                                    s                        frac. trans.

      isym =  1     identity                                     

 cryst.   s( 1) = (     1          0          0      )
                  (     0          1          0      )
                  (     0          0          1      )

 cart.    s( 1) = (  1.0000000  0.0000000  0.0000000 )
                  (  0.0000000  1.0000000  0.0000000 )
                  (  0.0000000  0.0000000  1.0000000 )


   Cartesian axes

     site n.     atom                  positions (alat units)
         1           B   tau(   1) = (  -0.0000160   0.0818508   0.4226760  )
         2           B   tau(   2) = (  -0.0716281   0.2056324   0.4224293  )
         3           B   tau(   3) = (  -0.1431039   0.3294099   0.4228965  )
         4           B   tau(   4) = (  -0.2143649   0.4531735   0.4230184  )
         5           B   tau(   5) = (  -0.2855557   0.5768472   0.4231833  )
         6           B   tau(   6) = (  -0.3569625   0.7005588   0.4236809  )
         7           B   tau(   7) = (  -0.4284397   0.8242633   0.4233213  )
         8           B   tau(   8) = (   0.1430028   0.0820379   0.4245792  )
         9           B   tau(   9) = (   0.0710703   0.2050893   0.4258824  )
        10           B   tau(  10) = (  -0.0004588   0.3291844   0.4275681  )
        11           B   tau(  11) = (  -0.0715946   0.4530109   0.4269725  )
        12           B   tau(  12) = (  -0.1425255   0.5767849   0.4250112  )
        13           B   tau(  13) = (  -0.2140556   0.7005062   0.4234263  )
        14           B   tau(  14) = (  -0.2855717   0.8242671   0.4234512  )
        15           B   tau(  15) = (   0.2857885   0.0819868   0.4247814  )
        16           B   tau(  16) = (   0.2145671   0.2058703   0.4298066  )
        17           B   tau(  17) = (   0.1410691   0.3284910   0.4372550  )
        18           B   tau(  18) = (   0.0712103   0.4522207   0.4388877  )
        19           B   tau(  19) = (   0.0006589   0.5765351   0.4306174  )
        20           B   tau(  20) = (  -0.0711160   0.7004401   0.4250604  )
        21           B   tau(  21) = (  -0.1427243   0.8242490   0.4231941  )
        22           B   tau(  22) = (   0.4284930   0.0821847   0.4230602  )
        23           B   tau(  23) = (   0.3569612   0.2059795   0.4268575  )
        24           B   tau(  24) = (   0.2869957   0.3307265   0.4390811  )
        25           B   tau(  25) = (   0.1435954   0.5774957   0.4380065  )
        26           B   tau(  26) = (   0.0715395   0.7008436   0.4268417  )
        27           B   tau(  27) = (  -0.0000100   0.8244484   0.4230671  )
        28           B   tau(  28) = (   0.5713183   0.0821534   0.4219979  )
        29           B   tau(  29) = (   0.4998873   0.2057712   0.4231563  )
        30           B   tau(  30) = (   0.4288241   0.3293244   0.4284747  )
        31           B   tau(  31) = (   0.3567607   0.4514413   0.4385687  )
        32           B   tau(  32) = (   0.2857055   0.5789042   0.4363513  )
        33           B   tau(  33) = (   0.2143415   0.7011477   0.4272667  )
        34           B   tau(  34) = (   0.1427897   0.8245690   0.4229991  )
        35           B   tau(  35) = (   0.7141896   0.0821598   0.4214225  )
        36           B   tau(  36) = (   0.6427125   0.2058634   0.4214453  )
        37           B   tau(  37) = (   0.5713629   0.3295931   0.4230924  )
        38           B   tau(  38) = (   0.4997759   0.4532563   0.4268078  )
        39           B   tau(  39) = (   0.4286833   0.5766371   0.4300134  )
        40           B   tau(  40) = (   0.3575943   0.7013071   0.4262450  )
        41           B   tau(  41) = (   0.2857613   0.8245794   0.4227566  )
        42           B   tau(  42) = (   0.8571064   0.0820802   0.4215836  )
        43           B   tau(  43) = (   0.7855390   0.2057771   0.4212345  )
        44           B   tau(  44) = (   0.7141368   0.3295474   0.4217692  )
        45           B   tau(  45) = (   0.6427259   0.4532396   0.4230030  )
        46           B   tau(  46) = (   0.5715256   0.5769225   0.4250403  )
        47           B   tau(  47) = (   0.5001074   0.7005161   0.4251757  )
        48           B   tau(  48) = (   0.4287766   0.8245102   0.4230741  )
        49           N   tau(  49) = (   0.0715648   0.0407300   0.4231879  )
        50           N   tau(  50) = (  -0.0002471   0.1641035   0.4229476  )
        51           N   tau(  51) = (  -0.0718441   0.2880028   0.4235663  )
        52           N   tau(  52) = (  -0.1431484   0.4118615   0.4237117  )
        53           N   tau(  53) = (  -0.2141866   0.5356366   0.4233956  )
        54           N   tau(  54) = (  -0.2855752   0.6593142   0.4233005  )
        55           N   tau(  55) = (  -0.3569969   0.7830303   0.4234673  )
        56           N   tau(  56) = (   0.2144170   0.0407730   0.4241659  )
        57           N   tau(  57) = (   0.1430796   0.1645057   0.4268472  )
        58           N   tau(  58) = (   0.0705353   0.2869157   0.4288746  )
        59           N   tau(  59) = (  -0.0006914   0.4115926   0.4302216  )
        60           N   tau(  60) = (  -0.0712427   0.5355455   0.4277288  )
        61           N   tau(  61) = (  -0.1426734   0.6593105   0.4243010  )
        62           N   tau(  62) = (  -0.2141699   0.7830400   0.4232301  )
        63           N   tau(  63) = (   0.3571734   0.0408390   0.4233950  )
        64           N   tau(  64) = (   0.2857981   0.1646314   0.4272941  )
        65           N   tau(  65) = (   0.2150194   0.2888108   0.4358265  )
        66           N   tau(  66) = (   0.1393481   0.4084123   0.4483693  )
        67           N   tau(  67) = (   0.0718791   0.5353866   0.4370244  )
        68           N   tau(  68) = (   0.0002303   0.6593020   0.4278181  )
        69           N   tau(  69) = (  -0.0713379   0.7830643   0.4234783  )
        70           N   tau(  70) = (   0.4998760   0.0410037   0.4224140  )
        71           N   tau(  71) = (   0.4283548   0.1648035   0.4237879  )
        72           N   tau(  72) = (   0.3569644   0.2888425   0.4305683  )
        73           N   tau(  73) = (   0.2156259   0.5402509   0.4464696  )
        74           N   tau(  74) = (   0.1428638   0.6601140   0.4296684  )
        75           N   tau(  75) = (   0.0713695   0.7833862   0.4236546  )
        76           N   tau(  76) = (   0.6427313   0.0410483   0.4219989  )
        77           N   tau(  77) = (   0.5712463   0.1646687   0.4218939  )
        78           N   tau(  78) = (   0.4998551   0.2883247   0.4241655  )
        79           N   tau(  79) = (   0.4280103   0.4118088   0.4303092  )
        80           N   tau(  80) = (   0.3570593   0.5347232   0.4355297  )
        81           N   tau(  81) = (   0.2864627   0.6608305   0.4286104  )
        82           N   tau(  82) = (   0.2143050   0.7835756   0.4236679  )
        83           N   tau(  83) = (   0.7856722   0.0409915   0.4215459  )
        84           N   tau(  84) = (   0.7140801   0.1646352   0.4210770  )
        85           N   tau(  85) = (   0.6426464   0.2883576   0.4216967  )
        86           N   tau(  86) = (   0.5711262   0.4120331   0.4238244  )
        87           N   tau(  87) = (   0.4999860   0.5355664   0.4274954  )
        88           N   tau(  88) = (   0.4287399   0.6592221   0.4274551  )
        89           N   tau(  89) = (   0.3574396   0.7835628   0.4235051  )
        90           N   tau(  90) = (   0.9285938   0.0408223   0.4223016  )
        91           N   tau(  91) = (   0.8569382   0.1644862   0.4213069  )
        92           N   tau(  92) = (   0.7854143   0.2882156   0.4216889  )
        93           N   tau(  93) = (   0.7140668   0.4119997   0.4222781  )
        94           N   tau(  94) = (   0.6428366   0.5356671   0.4233796  )
        95           N   tau(  95) = (   0.5715449   0.6593219   0.4246493  )
        96           N   tau(  96) = (   0.5001365   0.7830219   0.4236598  )
        97           Ti  tau(  97) = (   0.2348136   0.4418291   0.4915911  )

   Crystallographic axes

     site n.     atom                  positions (cryst. coord.)
         1           B   tau(   1) = (  0.0472405  0.0945131  0.4955734  )
         2           B   tau(   2) = (  0.0470938  0.2374438  0.4952841  )
         3           B   tau(   3) = (  0.0470809  0.3803696  0.4958319  )
         4           B   tau(   4) = (  0.0472749  0.5232796  0.4959749  )
         5           B   tau(   5) = (  0.0474871  0.6660856  0.4961682  )
         6           B   tau(   6) = (  0.0475051  0.8089353  0.4967517  )
         7           B   tau(   7) = (  0.0474488  0.9517770  0.4963300  )
         8           B   tau(   8) = (  0.1903673  0.0947291  0.4978049  )
         9           B   tau(   9) = (  0.1894786  0.2368167  0.4993328  )
        10           B   tau(  10) = (  0.1895959  0.3801093  0.5013093  )
        11           B   tau(  11) = (  0.1899513  0.5230918  0.5006109  )
        12           B   tau(  12) = (  0.1904813  0.6660137  0.4983114  )
        13           B   tau(  13) = (  0.1903817  0.8088746  0.4964531  )
        14           B   tau(  14) = (  0.1903190  0.9517814  0.4964823  )
        15           B   tau(  15) = (  0.3331236  0.0946702  0.4980419  )
        16           B   tau(  16) = (  0.3334263  0.2377185  0.5039338  )
        17           B   tau(  17) = (  0.3307234  0.3793086  0.5126669  )
        18           B   tau(  18) = (  0.3323000  0.5221793  0.5145811  )
        19           B   tau(  19) = (  0.3335216  0.6657252  0.5048844  )
        20           B   tau(  20) = (  0.3332831  0.8087983  0.4983690  )
        21           B   tau(  21) = (  0.3331560  0.9517605  0.4961809  )
        22           B   tau(  22) = (  0.4759424  0.0948987  0.4960238  )
        23           B   tau(  23) = (  0.4758834  0.2378446  0.5004760  )
        24           B   tau(  24) = (  0.4779406  0.3818899  0.5148079  )
        25           B   tau(  25) = (  0.4770126  0.6668344  0.5135479  )
        26           B   tau(  26) = (  0.4761716  0.8092643  0.5004575  )
        27           B   tau(  27) = (  0.4759853  0.9519908  0.4960319  )
        28           B   tau(  28) = (  0.6187496  0.0948625  0.4947784  )
        29           B   tau(  29) = (  0.6186893  0.2376041  0.4961365  )
        30           B   tau(  30) = (  0.6189596  0.3802709  0.5023722  )
        31           B   tau(  31) = (  0.6174003  0.5212793  0.5142070  )
        32           B   tau(  32) = (  0.6199359  0.6684608  0.5116072  )
        33           B   tau(  33) = (  0.6191492  0.8096154  0.5009558  )
        34           B   tau(  34) = (  0.6188547  0.9521300  0.4959522  )
        35           B   tau(  35) = (  0.7616246  0.0948700  0.4941038  )
        36           B   tau(  36) = (  0.7615678  0.2377105  0.4941304  )
        37           B   tau(  37) = (  0.7616535  0.3805812  0.4960616  )
        38           B   tau(  38) = (  0.7614635  0.5233751  0.5004178  )
        39           B   tau(  39) = (  0.7616048  0.6658430  0.5041762  )
        40           B   tau(  40) = (  0.7624940  0.8097995  0.4997579  )
        41           B   tau(  41) = (  0.7618323  0.9521420  0.4956679  )
        42           B   tau(  42) = (  0.9044954  0.0947780  0.4942926  )
        43           B   tau(  43) = (  0.9043444  0.2376108  0.4938833  )
        44           B   tau(  44) = (  0.9044010  0.3805285  0.4945102  )
        45           B   tau(  45) = (  0.9044039  0.5233559  0.4959568  )
        46           B   tau(  46) = (  0.9046118  0.6661726  0.4983455  )
        47           B   tau(  47) = (  0.9045504  0.8088861  0.4985042  )
        48           B   tau(  48) = (  0.9048077  0.9520621  0.4960401  )
        49           N   tau(  49) = (  0.0950802  0.0470309  0.4961736  )
        50           N   tau(  50) = (  0.0944981  0.1894904  0.4958918  )
        51           N   tau(  51) = (  0.0944343  0.3325569  0.4966172  )
        52           N   tau(  52) = (  0.0946399  0.4755766  0.4967877  )
        53           N   tau(  53) = (  0.0950633  0.6184996  0.4964172  )
        54           N   tau(  54) = (  0.0950799  0.7613102  0.4963057  )
        55           N   tau(  55) = (  0.0950857  0.9041652  0.4965012  )
        56           N   tau(  56) = (  0.2379573  0.0470806  0.4973203  )
        57           N   tau(  57) = (  0.2380570  0.1899548  0.5004640  )
        58           N   tau(  58) = (  0.2361860  0.3313016  0.5028411  )
        59           N   tau(  59) = (  0.2369417  0.4752661  0.5044204  )
        60           N   tau(  60) = (  0.2379545  0.6183944  0.5014976  )
        61           N   tau(  61) = (  0.2379795  0.7613060  0.4974787  )
        62           N   tau(  62) = (  0.2379184  0.9041764  0.4962231  )
        63           N   tau(  63) = (  0.3807518  0.0471568  0.4964164  )
        64           N   tau(  64) = (  0.3808480  0.1900999  0.5009879  )
        65           N   tau(  65) = (  0.3817644  0.3334899  0.5109920  )
        66           N   tau(  66) = (  0.3751450  0.4715937  0.5256979  )
        67           N   tau(  67) = (  0.3809846  0.6182110  0.5123965  )
        68           N   tau(  68) = (  0.3808783  0.7612961  0.5016023  )
        69           N   tau(  69) = (  0.3807643  0.9042045  0.4965141  )
        70           N   tau(  70) = (  0.5235495  0.0473469  0.4952662  )
        71           N   tau(  71) = (  0.5235041  0.1902986  0.4968770  )
        72           N   tau(  72) = (  0.5237277  0.3335265  0.5048269  )
        73           N   tau(  73) = (  0.5275398  0.6238278  0.5234706  )
        74           N   tau(  74) = (  0.5239807  0.7622338  0.5037718  )
        75           N   tau(  75) = (  0.5236576  0.9045761  0.4967208  )
        76           N   tau(  76) = (  0.6664306  0.0473985  0.4947796  )
        77           N   tau(  77) = (  0.6663177  0.1901430  0.4946564  )
        78           N   tau(  78) = (  0.6663194  0.3329286  0.4973198  )
        79           N   tau(  79) = (  0.6657681  0.4755157  0.5045231  )
        80           N   tau(  80) = (  0.6657818  0.6174450  0.5106439  )
        81           N   tau(  81) = (  0.6679932  0.7630611  0.5025313  )
        82           N   tau(  82) = (  0.6667024  0.9047949  0.4967364  )
        83           N   tau(  83) = (  0.8093386  0.0473329  0.4942484  )
        84           N   tau(  84) = (  0.8091323  0.1901043  0.4936986  )
        85           N   tau(  85) = (  0.8091297  0.3329666  0.4944252  )
        86           N   tau(  86) = (  0.8090136  0.4757747  0.4969198  )
        87           N   tau(  87) = (  0.8091953  0.6184186  0.5012240  )
        88           N   tau(  88) = (  0.8093419  0.7612039  0.5011768  )
        89           N   tau(  89) = (  0.8098297  0.9047801  0.4965454  )
        90           N   tau(  90) = (  0.9521625  0.0471375  0.4951344  )
        91           N   tau(  91) = (  0.9519044  0.1899323  0.4939681  )
        92           N   tau(  92) = (  0.9518156  0.3328026  0.4944161  )
        93           N   tau(  93) = (  0.9519349  0.4757362  0.4951068  )
        94           N   tau(  94) = (  0.9521041  0.6185349  0.4963984  )
        95           N   tau(  95) = (  0.9522044  0.7613191  0.4978871  )
        96           N   tau(  96) = (  0.9522142  0.9041555  0.4967269  )
        97           Ti  tau(  97) = (  0.4899037  0.5101801  0.5763740  )

     number of k points=     5  Marzari-Vanderbilt smearing, width (Ry)=  0.0010
                       cart. coord. in units 2pi/alat
        k(    1) = (   0.0000000   0.0000000   0.0000000), wk =   0.1111111
        k(    2) = (   0.0000000   0.3849001   0.0000000), wk =   0.2222222
        k(    3) = (   0.3333333   0.5773501   0.0000000), wk =   0.2222222
        k(    4) = (  -0.3333333   0.1924500   0.0000000), wk =   0.2222222
        k(    5) = (   0.3333333   0.1924500   0.0000000), wk =   0.2222222

                       cryst. coord.
        k(    1) = (   0.0000000   0.0000000   0.0000000), wk =   0.1111111
        k(    2) = (   0.0000000   0.3333333   0.0000000), wk =   0.2222222
        k(    3) = (   0.3333333   0.3333333   0.0000000), wk =   0.2222222
        k(    4) = (  -0.3333333   0.3333333   0.0000000), wk =   0.2222222
        k(    5) = (   0.3333333  -0.0000000   0.0000000), wk =   0.2222222

     Dense  grid:  1295129 G-vectors     FFT dimensions: ( 150, 150, 128)

     Estimated max dynamical RAM per process >     168.78MB

     Estimated total allocated dynamical RAM >   60759.06MB
     Generating pointlists ...
     new r_m :   0.0333 (alat units)  1.1059 (a.u.) for type    1
     new r_m :   0.0333 (alat units)  1.1059 (a.u.) for type    2
     new r_m :   0.0454 (alat units)  1.5075 (a.u.) for type    3

     Initial potential from superposition of free atoms
     Check: negative starting charge=(component1):   -0.003659
     Check: negative starting charge=(component2):   -0.003752

     starting charge  395.98610, renormalised to  397.00000

     negative rho (up, down):  3.668E-03 3.761E-03
     Starting wfc are  394 randomized atomic wfcs

     total cpu time spent up to now is       10.0 secs

     per-process dynamical memory:   148.0 Mb

     Self-consistent Calculation

     iteration #  1     ecut=    50.00 Ry     beta=0.70
     Davidson diagonalization with overlap
     ethr =  1.00E-02,  avg # of iterations =  2.0

     negative rho (up, down):  7.037E-04 7.255E-04

     total cpu time spent up to now is       18.0 secs

     total energy              =   -1343.19931582 Ry
     Harris-Foulkes estimate   =   -1352.34980743 Ry
     estimated scf accuracy    <      19.90929441 Ry

     total magnetization       =     3.00 Bohr mag/cell
     absolute magnetization    =     3.68 Bohr mag/cell

     iteration #  2     ecut=    50.00 Ry     beta=0.70
     Davidson diagonalization with overlap
     ethr =  5.01E-03,  avg # of iterations =  4.0

     negative rho (up, down):  4.003E-04 4.308E-04

     total cpu time spent up to now is       27.0 secs

     total energy              =   -1340.95302030 Ry
     Harris-Foulkes estimate   =   -1354.25980584 Ry
     estimated scf accuracy    <      29.72168300 Ry

     total magnetization       =     0.42 Bohr mag/cell
     absolute magnetization    =     1.10 Bohr mag/cell

     iteration #  3     ecut=    50.00 Ry     beta=0.70
     Davidson diagonalization with overlap
     ethr =  5.01E-03,  avg # of iterations =  5.4

     negative rho (up, down):  2.855E-04 3.058E-04

     total cpu time spent up to now is       38.1 secs

     total energy              =   -1340.75908517 Ry
     Harris-Foulkes estimate   =   -1357.30824049 Ry
     estimated scf accuracy    <      92.75367262 Ry

     total magnetization       =     1.01 Bohr mag/cell
     absolute magnetization    =     1.62 Bohr mag/cell

     iteration #  4     ecut=    50.00 Ry     beta=0.70
     Davidson diagonalization with overlap
     ethr =  5.01E-03,  avg # of iterations =  4.0

     negative rho (up, down):  5.477E-05 1.500E-04

     total cpu time spent up to now is       45.0 secs

     total energy              =   -1349.50873772 Ry
     Harris-Foulkes estimate   =   -1350.94209375 Ry
     estimated scf accuracy    <       4.11313145 Ry

     total magnetization       =     1.51 Bohr mag/cell
     absolute magnetization    =     1.80 Bohr mag/cell

     iteration #  5     ecut=    50.00 Ry     beta=0.70
     Davidson diagonalization with overlap
     ethr =  1.04E-03,  avg # of iterations =  7.1

     negative rho (up, down):  1.200E-06 9.930E-06

     total cpu time spent up to now is       53.5 secs

     total energy              =   -1350.31264869 Ry
     Harris-Foulkes estimate   =   -1350.49849912 Ry
     estimated scf accuracy    <       0.52128837 Ry

     total magnetization       =     3.00 Bohr mag/cell
     absolute magnetization    =     3.27 Bohr mag/cell

     iteration #  6     ecut=    50.00 Ry     beta=0.70
     Davidson diagonalization with overlap
     ethr =  1.31E-04,  avg # of iterations = 10.3

     negative rho (up, down):  0.000E+00 7.117E-08

     total cpu time spent up to now is       63.5 secs

     total energy              =   -1350.39042639 Ry
     Harris-Foulkes estimate   =   -1350.44151610 Ry
     estimated scf accuracy    <       0.19587104 Ry

     total magnetization       =     3.00 Bohr mag/cell
     absolute magnetization    =     3.17 Bohr mag/cell

     iteration #  7     ecut=    50.00 Ry     beta=0.70
     Davidson diagonalization with overlap
     ethr =  4.93E-05,  avg # of iterations =  7.3

     total cpu time spent up to now is       72.6 secs

     total energy              =   -1350.40761267 Ry
     Harris-Foulkes estimate   =   -1350.42445330 Ry
     estimated scf accuracy    <       0.04194338 Ry

     total magnetization       =     3.00 Bohr mag/cell
     absolute magnetization    =     3.16 Bohr mag/cell

     iteration #  8     ecut=    50.00 Ry     beta=0.70
     Davidson diagonalization with overlap
     ethr =  1.06E-05,  avg # of iterations =  8.5

     total cpu time spent up to now is       84.2 secs

     total energy              =   -1350.41398209 Ry
     Harris-Foulkes estimate   =   -1350.42387848 Ry
     estimated scf accuracy    <       0.03980531 Ry

     total magnetization       =     3.00 Bohr mag/cell
     absolute magnetization    =     3.15 Bohr mag/cell

     iteration #  9     ecut=    50.00 Ry     beta=0.70
     Davidson diagonalization with overlap
     ethr =  1.00E-05,  avg # of iterations =  9.1

     total cpu time spent up to now is       93.1 secs

     total energy              =   -1350.41910034 Ry
     Harris-Foulkes estimate   =   -1350.41957087 Ry
     estimated scf accuracy    <       0.00235421 Ry

     total magnetization       =     3.00 Bohr mag/cell
     absolute magnetization    =     3.16 Bohr mag/cell

     iteration # 10     ecut=    50.00 Ry     beta=0.70
     Davidson diagonalization with overlap
     ethr =  5.93E-07,  avg # of iterations =  8.9

     total cpu time spent up to now is      103.1 secs

     total energy              =   -1350.41926979 Ry
     Harris-Foulkes estimate   =   -1350.41940720 Ry
     estimated scf accuracy    <       0.00079293 Ry

     total magnetization       =     3.00 Bohr mag/cell
     absolute magnetization    =     3.16 Bohr mag/cell

     iteration # 11     ecut=    50.00 Ry     beta=0.70
     Davidson diagonalization with overlap
     ethr =  2.00E-07,  avg # of iterations =  3.0

     total cpu time spent up to now is      109.8 secs

     total energy              =   -1350.41926866 Ry
     Harris-Foulkes estimate   =   -1350.41932636 Ry
     estimated scf accuracy    <       0.00028207 Ry

     total magnetization       =     3.00 Bohr mag/cell
     absolute magnetization    =     3.17 Bohr mag/cell

     iteration # 12     ecut=    50.00 Ry     beta=0.70
     Davidson diagonalization with overlap
     ethr =  7.10E-08,  avg # of iterations =  4.0

     total cpu time spent up to now is      117.1 secs

     total energy              =   -1350.41928273 Ry
     Harris-Foulkes estimate   =   -1350.41930813 Ry
     estimated scf accuracy    <       0.00006596 Ry

     total magnetization       =     3.00 Bohr mag/cell
     absolute magnetization    =     3.17 Bohr mag/cell

     iteration # 13     ecut=    50.00 Ry     beta=0.70
     Davidson diagonalization with overlap
     ethr =  1.66E-08,  avg # of iterations =  4.9

     total cpu time spent up to now is      125.3 secs

     total energy              =   -1350.41929968 Ry
     Harris-Foulkes estimate   =   -1350.41930549 Ry
     estimated scf accuracy    <       0.00002348 Ry

     total magnetization       =     3.00 Bohr mag/cell
     absolute magnetization    =     3.18 Bohr mag/cell

     iteration # 14     ecut=    50.00 Ry     beta=0.70
     Davidson diagonalization with overlap
     ethr =  5.92E-09,  avg # of iterations =  4.4

     total cpu time spent up to now is      132.7 secs

     total energy              =   -1350.41930252 Ry
     Harris-Foulkes estimate   =   -1350.41930370 Ry
     estimated scf accuracy    <       0.00000522 Ry

     total magnetization       =     3.00 Bohr mag/cell
     absolute magnetization    =     3.18 Bohr mag/cell

     iteration # 15     ecut=    50.00 Ry     beta=0.70
     Davidson diagonalization with overlap
     ethr =  1.31E-09,  avg # of iterations =  4.3

     total cpu time spent up to now is      140.0 secs

     total energy              =   -1350.41930330 Ry
     Harris-Foulkes estimate   =   -1350.41930364 Ry
     estimated scf accuracy    <       0.00000146 Ry

     total magnetization       =     3.00 Bohr mag/cell
     absolute magnetization    =     3.18 Bohr mag/cell

     iteration # 16     ecut=    50.00 Ry     beta=0.70
     Davidson diagonalization with overlap
     ethr =  3.67E-10,  avg # of iterations =  4.2

     total cpu time spent up to now is      147.5 secs

     total energy              =   -1350.41930361 Ry
     Harris-Foulkes estimate   =   -1350.41930370 Ry
     estimated scf accuracy    <       0.00000035 Ry

     total magnetization       =     3.00 Bohr mag/cell
     absolute magnetization    =     3.18 Bohr mag/cell

     iteration # 17     ecut=    50.00 Ry     beta=0.70
     Davidson diagonalization with overlap
     ethr =  8.85E-11,  avg # of iterations =  4.1

     total cpu time spent up to now is      155.1 secs

     total energy              =   -1350.41930371 Ry
     Harris-Foulkes estimate   =   -1350.41930370 Ry
     estimated scf accuracy    <       0.00000007 Ry

     total magnetization       =     3.00 Bohr mag/cell
     absolute magnetization    =     3.18 Bohr mag/cell

     iteration # 18     ecut=    50.00 Ry     beta=0.70
     Davidson diagonalization with overlap
     ethr =  1.77E-11,  avg # of iterations =  4.1
 
     Magnetic moment per site:
     atom:    1    charge:    0.8312    magn:    0.0002    constr:    0.0000
     atom:    2    charge:    0.8287    magn:    0.0004    constr:    0.0000
     atom:    3    charge:    0.8303    magn:    0.0002    constr:    0.0000
     atom:    4    charge:    0.8290    magn:    0.0000    constr:    0.0000
     atom:    5    charge:    0.8284    magn:    0.0001    constr:    0.0000
     atom:    6    charge:    0.8281    magn:    0.0002    constr:    0.0000
     atom:    7    charge:    0.8281    magn:    0.0000    constr:    0.0000
     atom:    8    charge:    0.8275    magn:    0.0004    constr:    0.0000
     atom:    9    charge:    0.8343    magn:    0.0011    constr:    0.0000
     atom:   10    charge:    0.8274    magn:    0.0010    constr:    0.0000
     atom:   11    charge:    0.8299    magn:    0.0003    constr:    0.0000
     atom:   12    charge:    0.8278    magn:    0.0001    constr:    0.0000
     atom:   13    charge:    0.8268    magn:    0.0002    constr:    0.0000
     atom:   14    charge:    0.8283    magn:    0.0002    constr:    0.0000
     atom:   15    charge:    0.8275    magn:    0.0011    constr:    0.0000
     atom:   16    charge:    0.8238    magn:    0.0086    constr:    0.0000
     atom:   17    charge:    0.8341    magn:    0.0061    constr:    0.0000
     atom:   18    charge:    0.8222    magn:    0.0039    constr:    0.0000
     atom:   19    charge:    0.8233    magn:    0.0004    constr:    0.0000
     atom:   20    charge:    0.8274    magn:    0.0001    constr:    0.0000
     atom:   21    charge:    0.8279    magn:    0.0001    constr:    0.0000
     atom:   22    charge:    0.8277    magn:   -0.0000    constr:    0.0000
     atom:   23    charge:    0.8282    magn:    0.0025    constr:    0.0000
     atom:   24    charge:    0.7667    magn:    0.0763    constr:    0.0000
     atom:   25    charge:    0.8233    magn:    0.0040    constr:    0.0000
     atom:   26    charge:    0.8298    magn:    0.0003    constr:    0.0000
     atom:   27    charge:    0.8286    magn:    0.0000    constr:    0.0000
     atom:   28    charge:    0.8285    magn:    0.0002    constr:    0.0000
     atom:   29    charge:    0.8288    magn:    0.0024    constr:    0.0000
     atom:   30    charge:    0.8317    magn:    0.0136    constr:    0.0000
     atom:   31    charge:    0.7668    magn:    0.0769    constr:    0.0000
     atom:   32    charge:    0.8346    magn:    0.0063    constr:    0.0000
     atom:   33    charge:    0.8273    magn:    0.0011    constr:    0.0000
     atom:   34    charge:    0.8291    magn:    0.0002    constr:    0.0000
     atom:   35    charge:    0.8282    magn:    0.0003    constr:    0.0000
     atom:   36    charge:    0.8295    magn:    0.0011    constr:    0.0000
     atom:   37    charge:    0.8290    magn:    0.0024    constr:    0.0000
     atom:   38    charge:    0.8276    magn:    0.0026    constr:    0.0000
     atom:   39    charge:    0.8242    magn:    0.0086    constr:    0.0000
     atom:   40    charge:    0.8342    magn:    0.0012    constr:    0.0000
     atom:   41    charge:    0.8286    magn:    0.0004    constr:    0.0000
     atom:   42    charge:    0.8286    magn:    0.0003    constr:    0.0000
     atom:   43    charge:    0.8292    magn:    0.0003    constr:    0.0000
     atom:   44    charge:    0.8290    magn:    0.0002    constr:    0.0000
     atom:   45    charge:    0.8277    magn:   -0.0000    constr:    0.0000
     atom:   46    charge:    0.8281    magn:    0.0011    constr:    0.0000
     atom:   47    charge:    0.8286    magn:    0.0004    constr:    0.0000
     atom:   48    charge:    0.8309    magn:    0.0002    constr:    0.0000
     atom:   49    charge:    2.7550    magn:   -0.0000    constr:    0.0000
     atom:   50    charge:    2.7574    magn:   -0.0002    constr:    0.0000
     atom:   51    charge:    2.7562    magn:   -0.0003    constr:    0.0000
     atom:   52    charge:    2.7556    magn:   -0.0001    constr:    0.0000
     atom:   53    charge:    2.7545    magn:   -0.0000    constr:    0.0000
     atom:   54    charge:    2.7560    magn:    0.0001    constr:    0.0000
     atom:   55    charge:    2.7544    magn:    0.0000    constr:    0.0000
     atom:   56    charge:    2.7559    magn:    0.0003    constr:    0.0000
     atom:   57    charge:    2.7546    magn:    0.0005    constr:    0.0000
     atom:   58    charge:    2.7592    magn:   -0.0008    constr:    0.0000
     atom:   59    charge:    2.7531    magn:   -0.0007    constr:    0.0000
     atom:   60    charge:    2.7526    magn:   -0.0001    constr:    0.0000
     atom:   61    charge:    2.7556    magn:    0.0000    constr:    0.0000
     atom:   62    charge:    2.7555    magn:    0.0001    constr:    0.0000
     atom:   63    charge:    2.7575    magn:    0.0001    constr:    0.0000
     atom:   64    charge:    2.7568    magn:    0.0010    constr:    0.0000
     atom:   65    charge:    2.7304    magn:    0.0229    constr:    0.0000
     atom:   66    charge:    2.7377    magn:   -0.0142    constr:    0.0000
     atom:   67    charge:    2.7447    magn:   -0.0009    constr:    0.0000
     atom:   68    charge:    2.7513    magn:   -0.0001    constr:    0.0000
     atom:   69    charge:    2.7546    magn:   -0.0000    constr:    0.0000
     atom:   70    charge:    2.7555    magn:   -0.0001    constr:    0.0000
     atom:   71    charge:    2.7548    magn:   -0.0012    constr:    0.0000
     atom:   72    charge:    2.7495    magn:   -0.0046    constr:    0.0000
     atom:   73    charge:    2.7392    magn:   -0.0143    constr:    0.0000
     atom:   74    charge:    2.7530    magn:   -0.0007    constr:    0.0000
     atom:   75    charge:    2.7559    magn:   -0.0001    constr:    0.0000
     atom:   76    charge:    2.7559    magn:   -0.0002    constr:    0.0000
     atom:   77    charge:    2.7566    magn:   -0.0006    constr:    0.0000
     atom:   78    charge:    2.7558    magn:   -0.0022    constr:    0.0000
     atom:   79    charge:    2.7496    magn:   -0.0046    constr:    0.0000
     atom:   80    charge:    2.7305    magn:    0.0223    constr:    0.0000
     atom:   81    charge:    2.7597    magn:   -0.0008    constr:    0.0000
     atom:   82    charge:    2.7563    magn:   -0.0003    constr:    0.0000
     atom:   83    charge:    2.7566    magn:   -0.0002    constr:    0.0000
     atom:   84    charge:    2.7568    magn:   -0.0003    constr:    0.0000
     atom:   85    charge:    2.7564    magn:   -0.0006    constr:    0.0000
     atom:   86    charge:    2.7548    magn:   -0.0012    constr:    0.0000
     atom:   87    charge:    2.7575    magn:    0.0010    constr:    0.0000
     atom:   88    charge:    2.7530    magn:    0.0004    constr:    0.0000
     atom:   89    charge:    2.7568    magn:   -0.0003    constr:    0.0000
     atom:   90    charge:    2.7573    magn:   -0.0001    constr:    0.0000
     atom:   91    charge:    2.7573    magn:   -0.0002    constr:    0.0000
     atom:   92    charge:    2.7553    magn:   -0.0002    constr:    0.0000
     atom:   93    charge:    2.7554    magn:   -0.0001    constr:    0.0000
     atom:   94    charge:    2.7562    magn:    0.0001    constr:    0.0000
     atom:   95    charge:    2.7557    magn:    0.0003    constr:    0.0000
     atom:   96    charge:    2.7552    magn:   -0.0000    constr:    0.0000
     atom:   97    charge:    8.6367    magn:    0.8303    constr:    0.0000

     total cpu time spent up to now is      162.3 secs

     End of self-consistent calculation

 ------ SPIN UP ------------


          k = 0.0000 0.0000 0.0000 (161811 PWs)   bands (ev):

   -57.1229 -33.7128 -33.5071 -33.4470 -20.8526 -20.5728 -20.5091 -20.5047
   -20.3407 -20.3137 -20.0094 -19.6981 -19.6855 -19.6824 -19.6716 -19.6712
   -19.5878 -19.3331 -19.2817 -19.2778 -19.1488 -19.0860 -18.7343 -18.5178
   -18.5131 -18.5116 -18.5041 -18.4962 -18.4956 -18.2996 -18.2833 -18.2818
   -18.2518 -18.2291 -18.1576 -18.0015 -17.9667 -17.9493 -17.8764 -17.8398
   -17.6345 -17.6256 -17.6087 -17.5598 -17.5130 -17.4913 -17.4613 -17.3748
   -17.2633 -17.1657 -16.4878 -16.3254 -11.8799 -11.8720 -11.8666 -11.8153
   -11.8036 -11.8021 -11.7001 -11.6720 -11.6616 -11.3375 -11.3087 -11.2879
   -11.2099 -11.1859 -11.1055 -10.9945 -10.8918 -10.8834 -10.5320 -10.4829
   -10.4686 -10.4646 -10.4295 -10.4134 -10.3756 -10.2693 -10.2091 -10.0910
    -9.9517  -9.9310  -9.8282  -9.8247  -9.6127  -9.5877  -9.4297  -9.3271
    -9.1023  -8.9912  -8.9433  -8.9365  -8.8005  -8.5629  -8.4304  -8.4022
    -8.3787  -8.3660  -8.3386  -8.2892  -8.2654  -8.0627  -8.0279  -7.9956
    -7.9934  -7.9770  -7.9635  -7.9603  -7.9596  -7.9551  -7.9351  -7.8559
    -7.8271  -7.8111  -7.8066  -7.7836  -7.7814  -7.7702  -7.7559  -7.7430
    -7.5817  -7.5289  -7.4356  -7.4086  -7.3135  -7.3026  -7.2597  -6.9248
    -6.8764  -6.8661  -6.8650  -6.8501  -6.8361  -6.8002  -6.7521  -6.6836
    -6.6303  -6.6251  -6.6106  -6.6035  -6.5581  -6.5345  -6.3957  -6.3638
    -6.3474  -6.3352  -6.3275  -6.2706  -6.2601  -6.1864  -6.1629  -6.1100
    -6.1024  -6.0465  -6.0278  -5.9942  -5.8151  -5.6725  -5.5089  -5.3285
    -5.2689  -5.1858  -5.1850  -5.1786  -5.1740  -5.1664  -5.1618  -5.1577
    -5.0604  -4.9876  -4.9415  -4.9380  -4.9256  -4.8458  -4.7781  -4.7645
    -4.7082  -4.4938  -4.4851  -4.4435  -4.3960  -4.2938  -4.1870  -3.9811
    -3.9308  -3.8340  -3.8237  -3.8186  -3.7221  -3.6625  -3.6557  -3.5402
    -3.5264  -3.4491  -3.0720  -3.0581  -2.9005  -0.3040   0.0065   0.5005
     1.1883   1.2641   1.4128   1.5462   1.5909   1.5931   1.6091   1.6128
     1.6449   1.6755   1.7717   1.7985   1.8134   1.8211   1.8265   1.8346
     1.8825   1.9855   2.0138   2.0256

     occupation numbers 
     1.0000   1.0000   1.0000   1.0000   1.0000   1.0000   1.0000   1.0000
     1.0000   1.0000   1.0000   1.0000   1.0000   1.0000   1.0000   1.0000
     1.0000   1.0000   1.0000   1.0000   1.0000   1.0000   1.0000   1.0000
     1.0000   1.0000   1.0000   1.0000   1.0000   1.0000   1.0000   1.0000
     1.0000   1.0000   1.0000   1.0000   1.0000   1.0000   1.0000   1.0000
     1.0000   1.0000   1.0000   1.0000   1.0000   1.0000   1.0000   1.0000
     1.0000   1.0000   1.0000   1.0000   1.0000   1.0000   1.0000   1.0000
     1.0000   1.0000   1.0000   1.0000   1.0000   1.0000   1.0000   1.0000
     1.0000   1.0000   1.0000   1.0000   1.0000   1.0000   1.0000   1.0000
     1.0000   1.0000   1.0000   1.0000   1.0000   1.0000   1.0000   1.0000
     1.0000   1.0000   1.0000   1.0000   1.0000   1.0000   1.0000   1.0000
     1.0000   1.0000   1.0000   1.0000   1.0000   1.0000   1.0000   1.0000
     1.0000   1.0000   1.0000   1.0000   1.0000   1.0000   1.0000   1.0000
     1.0000   1.0000   1.0000   1.0000   1.0000   1.0000   1.0000   1.0000
     1.0000   1.0000   1.0000   1.0000   1.0000   1.0000   1.0000   1.0000
     1.0000   1.0000   1.0000   1.0000   1.0000   1.0000   1.0000   1.0000
     1.0000   1.0000   1.0000   1.0000   1.0000   1.0000   1.0000   1.0000
     1.0000   1.0000   1.0000   1.0000   1.0000   1.0000   1.0000   1.0000
     1.0000   1.0000   1.0000   1.0000   1.0000   1.0000   1.0000   1.0000
     1.0000   1.0000   1.0000   1.0000   1.0000   1.0000   1.0000   1.0000
     1.0000   1.0000   1.0000   1.0000   1.0000   1.0000   1.0000   1.0000
     1.0000   1.0000   1.0000   1.0000   1.0000   1.0000   1.0000   1.0000
     1.0000   1.0000   1.0000   1.0000   1.0000   1.0000   1.0000   1.0000
     1.0000   1.0000   1.0000   1.0000   1.0000   1.0000   1.0000   1.0000
     1.0000   1.0000   1.0000   1.0000   1.0000   1.0000   1.0000   1.0000
     0.0000   0.0000   0.0000   0.0000   0.0000   0.0000   0.0000   0.0000
     0.0000   0.0000   0.0000   0.0000   0.0000   0.0000   0.0000   0.0000
     0.0000   0.0000   0.0000   0.0000

          k = 0.0000 0.3849 0.0000 (161877 PWs)   bands (ev):

   -57.1229 -33.7128 -33.5071 -33.4470 -20.8217 -20.6955 -20.5332 -20.4236
   -20.2563 -20.2175 -20.0170 -19.9853 -19.8582 -19.6711 -19.6555 -19.6003
   -19.3601 -19.3182 -19.3016 -19.2083 -18.9424 -18.9228 -18.9162 -18.8895
   -18.6595 -18.6243 -18.5272 -18.5104 -18.4750 -18.2557 -18.2398 -18.2157
   -18.1338 -18.1218 -18.0234 -17.9633 -17.9451 -17.9094 -17.8551 -17.8299
   -17.7606 -17.7014 -17.6466 -17.6299 -17.5313 -17.4908 -17.4230 -17.3847
   -17.2316 -17.1545 -16.4881 -16.3237 -12.0054 -11.9540 -11.9423 -11.7815
   -11.7629 -11.6365 -11.5918 -11.5772 -11.5638 -11.3109 -11.2999 -11.2281
   -11.2164 -11.1725 -11.0874 -11.0576 -11.0065 -10.9092 -10.8786 -10.7831
   -10.7500 -10.5505 -10.4852 -10.3775 -10.1121 -10.0376 -10.0178  -9.9937
    -9.9215  -9.8366  -9.7284  -9.5630  -9.5094  -9.4872  -9.4371  -9.3707
    -9.2334  -9.1021  -8.9709  -8.8910  -8.8482  -8.6983  -8.6132  -8.5406
    -8.4729  -8.4102  -8.3854  -8.3471  -8.3313  -8.2954  -8.2108  -8.1609
    -8.0925  -8.0325  -8.0192  -8.0006  -7.9488  -7.8916  -7.8750  -7.8357
    -7.7835  -7.6398  -7.6131  -7.6057  -7.5365  -7.5214  -7.5013  -7.4117
    -7.3683  -7.3337  -7.3242  -7.3027  -7.2885  -7.2486  -7.2232  -7.1808
    -7.1418  -7.0882  -7.0788  -6.9666  -6.8959  -6.8383  -6.8261  -6.8118
    -6.8067  -6.7920  -6.6391  -6.6198  -6.5697  -6.5177  -6.4994  -6.4041
    -6.3876  -6.3502  -6.3355  -6.2721  -6.2142  -6.0908  -6.0354  -5.9148
    -5.8750  -5.8507  -5.7811  -5.7674  -5.7431  -5.7147  -5.6096  -5.5752
    -5.5309  -5.4625  -5.3991  -5.3498  -5.3159  -5.1818  -5.1761  -5.1060
    -5.0116  -4.9400  -4.9023  -4.8427  -4.8204  -4.7562  -4.6186  -4.6093
    -4.5952  -4.5496  -4.3916  -4.3555  -4.2081  -4.1904  -4.1490  -4.0930
    -4.0587  -4.0132  -3.9763  -3.9219  -3.8194  -3.7450  -3.6216  -3.5528
    -3.4507  -3.3457  -3.0705  -3.0600  -2.8671  -0.3055   0.0070   0.5008
     1.2122   1.2826   1.4227   1.5080   1.5276   1.5480   1.5859   1.6102
     1.6232   1.6707   1.7013   1.7201   1.7858   1.8054   1.8467   1.8992
     1.9435   2.0155   2.0618   2.0945

     occupation numbers 
     1.0000   1.0000   1.0000   1.0000   1.0000   1.0000   1.0000   1.0000
     1.0000   1.0000   1.0000   1.0000   1.0000   1.0000   1.0000   1.0000
     1.0000   1.0000   1.0000   1.0000   1.0000   1.0000   1.0000   1.0000
     1.0000   1.0000   1.0000   1.0000   1.0000   1.0000   1.0000   1.0000
     1.0000   1.0000   1.0000   1.0000   1.0000   1.0000   1.0000   1.0000
     1.0000   1.0000   1.0000   1.0000   1.0000   1.0000   1.0000   1.0000
     1.0000   1.0000   1.0000   1.0000   1.0000   1.0000   1.0000   1.0000
     1.0000   1.0000   1.0000   1.0000   1.0000   1.0000   1.0000   1.0000
     1.0000   1.0000   1.0000   1.0000   1.0000   1.0000   1.0000   1.0000
     1.0000   1.0000   1.0000   1.0000   1.0000   1.0000   1.0000   1.0000
     1.0000   1.0000   1.0000   1.0000   1.0000   1.0000   1.0000   1.0000
     1.0000   1.0000   1.0000   1.0000   1.0000   1.0000   1.0000   1.0000
     1.0000   1.0000   1.0000   1.0000   1.0000   1.0000   1.0000   1.0000
     1.0000   1.0000   1.0000   1.0000   1.0000   1.0000   1.0000   1.0000
     1.0000   1.0000   1.0000   1.0000   1.0000   1.0000   1.0000   1.0000
     1.0000   1.0000   1.0000   1.0000   1.0000   1.0000   1.0000   1.0000
     1.0000   1.0000   1.0000   1.0000   1.0000   1.0000   1.0000   1.0000
     1.0000   1.0000   1.0000   1.0000   1.0000   1.0000   1.0000   1.0000
     1.0000   1.0000   1.0000   1.0000   1.0000   1.0000   1.0000   1.0000
     1.0000   1.0000   1.0000   1.0000   1.0000   1.0000   1.0000   1.0000
     1.0000   1.0000   1.0000   1.0000   1.0000   1.0000   1.0000   1.0000
     1.0000   1.0000   1.0000   1.0000   1.0000   1.0000   1.0000   1.0000
     1.0000   1.0000   1.0000   1.0000   1.0000   1.0000   1.0000   1.0000
     1.0000   1.0000   1.0000   1.0000   1.0000   1.0000   1.0000   1.0000
     1.0000   1.0000   1.0000   1.0000   1.0000   1.0000   1.0000   1.0000
     0.0000   0.0000   0.0000   0.0000   0.0000   0.0000   0.0000   0.0000
     0.0000   0.0000   0.0000   0.0000   0.0000   0.0000   0.0000   0.0000
     0.0000   0.0000   0.0000   0.0000

          k = 0.3333 0.5774 0.0000 (161838 PWs)   bands (ev):

   -57.1229 -33.7128 -33.5071 -33.4470 -20.7734 -20.7645 -20.5640 -20.3051
   -20.3022 -20.1702 -20.0110 -19.9755 -19.9659 -19.7582 -19.7288 -19.4597
   -19.3089 -19.2983 -19.2866 -19.0391 -19.0219 -18.9431 -18.9125 -18.9104
   -18.8243 -18.6005 -18.5717 -18.5641 -18.4220 -18.3625 -18.1470 -18.1361
   -18.1307 -18.0947 -17.9759 -17.9472 -17.9298 -17.8593 -17.8434 -17.8086
   -17.7961 -17.7467 -17.6780 -17.6447 -17.6074 -17.5144 -17.3813 -17.3732
   -17.2351 -17.1456 -16.4888 -16.3222 -12.0311 -12.0197 -12.0085 -11.6174
   -11.5865 -11.5792 -11.5707 -11.5183 -11.4809 -11.3979 -11.3876 -11.3151
   -11.2749 -11.2228 -11.2120 -11.1795 -11.0624 -10.9856 -10.7239 -10.6079
   -10.5066 -10.4856 -10.4467 -10.4293 -10.3929 -10.3268 -10.2160 -10.0466
    -9.8777  -9.6520  -9.5070  -9.4882  -9.3496  -9.2710  -9.2347  -9.1473
    -9.1160  -9.0963  -9.0196  -8.9552  -8.9376  -8.8652  -8.8176  -8.7871
    -8.7623  -8.7498  -8.6037  -8.4860  -8.3174  -8.3150  -8.3052  -8.0691
    -7.9743  -7.8253  -7.8189  -7.7932  -7.7353  -7.7054  -7.7012  -7.6912
    -7.6756  -7.6631  -7.6187  -7.5910  -7.5677  -7.5491  -7.5018  -7.4513
    -7.4120  -7.3989  -7.3626  -7.3036  -7.2837  -7.2581  -7.2518  -7.2441
    -7.0781  -7.0664  -7.0591  -7.0459  -7.0197  -6.9944  -6.9810  -6.9482
    -6.8291  -6.8138  -6.7179  -6.6889  -6.5447  -6.5011  -6.3691  -6.3128
    -6.3067  -6.3012  -6.2551  -6.2082  -6.0872  -6.0622  -6.0292  -5.9409
    -5.9279  -5.9009  -5.8250  -5.7808  -5.7740  -5.7595  -5.7167  -5.5861
    -5.4487  -5.3564  -5.3447  -5.3371  -5.2965  -5.2612  -5.2412  -5.1528
    -5.1082  -5.0325  -4.9081  -4.8836  -4.8303  -4.6217  -4.6163  -4.5936
    -4.4094  -4.3558  -4.3425  -4.2665  -4.2398  -4.2006  -4.1383  -4.1249
    -4.1096  -4.0343  -4.0123  -3.9733  -3.9534  -3.8837  -3.5779  -3.5154
    -3.4516  -3.3370  -3.0686  -3.0490  -2.8498  -0.3056   0.0079   0.5010
     1.2257   1.3377   1.3729   1.4411   1.4856   1.5138   1.5515   1.5680
     1.6033   1.6238   1.6835   1.7494   1.8176   1.9552   2.0352   2.0538
     2.0944   2.0966   2.1018   2.1193

     occupation numbers 
     1.0000   1.0000   1.0000   1.0000   1.0000   1.0000   1.0000   1.0000
     1.0000   1.0000   1.0000   1.0000   1.0000   1.0000   1.0000   1.0000
     1.0000   1.0000   1.0000   1.0000   1.0000   1.0000   1.0000   1.0000
     1.0000   1.0000   1.0000   1.0000   1.0000   1.0000   1.0000   1.0000
     1.0000   1.0000   1.0000   1.0000   1.0000   1.0000   1.0000   1.0000
     1.0000   1.0000   1.0000   1.0000   1.0000   1.0000   1.0000   1.0000
     1.0000   1.0000   1.0000   1.0000   1.0000   1.0000   1.0000   1.0000
     1.0000   1.0000   1.0000   1.0000   1.0000   1.0000   1.0000   1.0000
     1.0000   1.0000   1.0000   1.0000   1.0000   1.0000   1.0000   1.0000
     1.0000   1.0000   1.0000   1.0000   1.0000   1.0000   1.0000   1.0000
     1.0000   1.0000   1.0000   1.0000   1.0000   1.0000   1.0000   1.0000
     1.0000   1.0000   1.0000   1.0000   1.0000   1.0000   1.0000   1.0000
     1.0000   1.0000   1.0000   1.0000   1.0000   1.0000   1.0000   1.0000
     1.0000   1.0000   1.0000   1.0000   1.0000   1.0000   1.0000   1.0000
     1.0000   1.0000   1.0000   1.0000   1.0000   1.0000   1.0000   1.0000
     1.0000   1.0000   1.0000   1.0000   1.0000   1.0000   1.0000   1.0000
     1.0000   1.0000   1.0000   1.0000   1.0000   1.0000   1.0000   1.0000
     1.0000   1.0000   1.0000   1.0000   1.0000   1.0000   1.0000   1.0000
     1.0000   1.0000   1.0000   1.0000   1.0000   1.0000   1.0000   1.0000
     1.0000   1.0000   1.0000   1.0000   1.0000   1.0000   1.0000   1.0000
     1.0000   1.0000   1.0000   1.0000   1.0000   1.0000   1.0000   1.0000
     1.0000   1.0000   1.0000   1.0000   1.0000   1.0000   1.0000   1.0000
     1.0000   1.0000   1.0000   1.0000   1.0000   1.0000   1.0000   1.0000
     1.0000   1.0000   1.0000   1.0000   1.0000   1.0000   1.0000   1.0000
     1.0000   1.0000   1.0000   1.0000   1.0000   1.0000   1.0000   1.0000
     0.0000   0.0000   0.0000   0.0000   0.0000   0.0000   0.0000   0.0000
     0.0000   0.0000   0.0000   0.0000   0.0000   0.0000   0.0000   0.0000
     0.0000   0.0000   0.0000   0.0000

          k =-0.3333 0.1925 0.0000 (161877 PWs)   bands (ev):

   -57.1229 -33.7128 -33.5071 -33.4470 -20.8194 -20.7017 -20.5340 -20.4109
   -20.2485 -20.2335 -20.0094 -19.9981 -19.8656 -19.6596 -19.6365 -19.6084
   -19.3769 -19.3253 -19.2983 -19.1848 -18.9572 -18.9221 -18.9171 -18.9014
   -18.6443 -18.6248 -18.5355 -18.4996 -18.4746 -18.2500 -18.2393 -18.2091
   -18.1355 -18.1315 -18.0395 -17.9573 -17.9539 -17.8849 -17.8538 -17.8284
   -17.7544 -17.7535 -17.6388 -17.5931 -17.5642 -17.4819 -17.3957 -17.3754
   -17.2587 -17.1519 -16.4891 -16.3225 -12.0159 -11.9523 -11.9430 -11.7590
   -11.7557 -11.6456 -11.5915 -11.5838 -11.5701 -11.3071 -11.3060 -11.2305
   -11.2199 -11.1170 -11.1134 -11.0442 -11.0282 -10.9254 -10.8574 -10.7970
   -10.7280 -10.6232 -10.4360 -10.4050 -10.1353 -10.0479 -10.0133  -9.9733
    -9.9145  -9.7693  -9.7266  -9.5940  -9.5154  -9.4805  -9.4625  -9.3079
    -9.2668  -9.0583  -8.9678  -8.9488  -8.8263  -8.6902  -8.6686  -8.4975
    -8.4890  -8.4400  -8.3829  -8.3517  -8.3049  -8.2906  -8.2175  -8.1731
    -8.1367  -8.0716  -8.0103  -7.9661  -7.9519  -7.8625  -7.8503  -7.8395
    -7.7658  -7.6351  -7.6288  -7.6272  -7.5372  -7.5101  -7.4822  -7.4306
    -7.3723  -7.3295  -7.3104  -7.3021  -7.2663  -7.2478  -7.2367  -7.1843
    -7.1250  -7.1042  -7.0555  -6.9480  -6.9352  -6.8626  -6.8280  -6.8240
    -6.8016  -6.7396  -6.6608  -6.6428  -6.5544  -6.5381  -6.4909  -6.3950
    -6.3624  -6.3484  -6.3451  -6.2757  -6.1573  -6.0959  -6.0793  -5.9449
    -5.8706  -5.8693  -5.8401  -5.7737  -5.7475  -5.6825  -5.6172  -5.5847
    -5.5197  -5.4905  -5.3571  -5.3243  -5.2083  -5.1905  -5.1637  -5.1549
    -5.0013  -4.9350  -4.8763  -4.8731  -4.8106  -4.8007  -4.6641  -4.6109
    -4.6080  -4.4727  -4.4037  -4.3611  -4.2304  -4.1948  -4.1592  -4.1025
    -4.0684  -3.9968  -3.9696  -3.9142  -3.7715  -3.7468  -3.5899  -3.5480
    -3.5220  -3.3625  -3.0708  -3.0398  -2.8687  -0.3048   0.0075   0.5012
     1.2138   1.2903   1.4256   1.4855   1.5147   1.5356   1.6070   1.6283
     1.6356   1.6817   1.6922   1.7358   1.7533   1.8330   1.8651   1.8757
     1.9171   2.0092   2.0542   2.1004

     occupation numbers 
     1.0000   1.0000   1.0000   1.0000   1.0000   1.0000   1.0000   1.0000
     1.0000   1.0000   1.0000   1.0000   1.0000   1.0000   1.0000   1.0000
     1.0000   1.0000   1.0000   1.0000   1.0000   1.0000   1.0000   1.0000
     1.0000   1.0000   1.0000   1.0000   1.0000   1.0000   1.0000   1.0000
     1.0000   1.0000   1.0000   1.0000   1.0000   1.0000   1.0000   1.0000
     1.0000   1.0000   1.0000   1.0000   1.0000   1.0000   1.0000   1.0000
     1.0000   1.0000   1.0000   1.0000   1.0000   1.0000   1.0000   1.0000
     1.0000   1.0000   1.0000   1.0000   1.0000   1.0000   1.0000   1.0000
     1.0000   1.0000   1.0000   1.0000   1.0000   1.0000   1.0000   1.0000
     1.0000   1.0000   1.0000   1.0000   1.0000   1.0000   1.0000   1.0000
     1.0000   1.0000   1.0000   1.0000   1.0000   1.0000   1.0000   1.0000
     1.0000   1.0000   1.0000   1.0000   1.0000   1.0000   1.0000   1.0000
     1.0000   1.0000   1.0000   1.0000   1.0000   1.0000   1.0000   1.0000
     1.0000   1.0000   1.0000   1.0000   1.0000   1.0000   1.0000   1.0000
     1.0000   1.0000   1.0000   1.0000   1.0000   1.0000   1.0000   1.0000
     1.0000   1.0000   1.0000   1.0000   1.0000   1.0000   1.0000   1.0000
     1.0000   1.0000   1.0000   1.0000   1.0000   1.0000   1.0000   1.0000
     1.0000   1.0000   1.0000   1.0000   1.0000   1.0000   1.0000   1.0000
     1.0000   1.0000   1.0000   1.0000   1.0000   1.0000   1.0000   1.0000
     1.0000   1.0000   1.0000   1.0000   1.0000   1.0000   1.0000   1.0000
     1.0000   1.0000   1.0000   1.0000   1.0000   1.0000   1.0000   1.0000
     1.0000   1.0000   1.0000   1.0000   1.0000   1.0000   1.0000   1.0000
     1.0000   1.0000   1.0000   1.0000   1.0000   1.0000   1.0000   1.0000
     1.0000   1.0000   1.0000   1.0000   1.0000   1.0000   1.0000   1.0000
     1.0000   1.0000   1.0000   1.0000   1.0000   1.0000   1.0000   1.0000
     0.0000   0.0000   0.0000   0.0000   0.0000   0.0000   0.0000   0.0000
     0.0000   0.0000   0.0000   0.0000   0.0000   0.0000   0.0000   0.0000
     0.0000   0.0000   0.0000   0.0000

          k = 0.3333 0.1925 0.0000 (161877 PWs)   bands (ev):

   -57.1229 -33.7128 -33.5071 -33.4470 -20.8218 -20.6953 -20.5329 -20.4247
   -20.2562 -20.2169 -20.0171 -19.9847 -19.8581 -19.6717 -19.6564 -19.6002
   -19.3597 -19.3176 -19.3020 -19.2084 -18.9423 -18.9230 -18.9154 -18.8894
   -18.6596 -18.6241 -18.5278 -18.5110 -18.4751 -18.2557 -18.2396 -18.2158
   -18.1330 -18.1218 -18.0229 -17.9636 -17.9452 -17.9099 -17.8551 -17.8290
   -17.7610 -17.7012 -17.6473 -17.6297 -17.5320 -17.4900 -17.4227 -17.3843
   -17.2329 -17.1539 -16.4881 -16.3237 -12.0051 -11.9539 -11.9425 -11.7820
   -11.7637 -11.6358 -11.5915 -11.5771 -11.5639 -11.3104 -11.2995 -11.2280
   -11.2165 -11.1722 -11.0873 -11.0577 -11.0073 -10.9087 -10.8782 -10.7836
   -10.7501 -10.5525 -10.4852 -10.3769 -10.1112 -10.0371 -10.0180  -9.9939
    -9.9211  -9.8364  -9.7288  -9.5628  -9.5091  -9.4871  -9.4374  -9.3699
    -9.2351  -9.1014  -8.9707  -8.8908  -8.8485  -8.6978  -8.6132  -8.5401
    -8.4727  -8.4103  -8.3856  -8.3483  -8.3316  -8.2961  -8.2107  -8.1608
    -8.0930  -8.0321  -8.0191  -8.0009  -7.9486  -7.8908  -7.8759  -7.8350
    -7.7834  -7.6396  -7.6126  -7.6055  -7.5364  -7.5218  -7.5011  -7.4112
    -7.3678  -7.3343  -7.3241  -7.3033  -7.2880  -7.2486  -7.2230  -7.1805
    -7.1418  -7.0889  -7.0791  -6.9663  -6.8951  -6.8387  -6.8270  -6.8123
    -6.8067  -6.7922  -6.6390  -6.6199  -6.5703  -6.5178  -6.5000  -6.4032
    -6.3865  -6.3491  -6.3363  -6.2721  -6.2137  -6.0907  -6.0359  -5.9137
    -5.8749  -5.8514  -5.7811  -5.7674  -5.7430  -5.7146  -5.6110  -5.5756
    -5.5324  -5.4597  -5.4013  -5.3478  -5.3170  -5.1819  -5.1764  -5.1054
    -5.0108  -4.9419  -4.9011  -4.8426  -4.8200  -4.7564  -4.6187  -4.6092
    -4.5941  -4.5505  -4.3915  -4.3556  -4.2085  -4.1898  -4.1493  -4.0928
    -4.0586  -4.0143  -3.9760  -3.9213  -3.8187  -3.7453  -3.6202  -3.5538
    -3.4520  -3.3461  -3.0701  -3.0595  -2.8673  -0.3054   0.0070   0.5008
     1.2117   1.2832   1.4229   1.5091   1.5279   1.5486   1.5832   1.6105
     1.6234   1.6708   1.7006   1.7199   1.7873   1.8057   1.8468   1.8998
     1.9404   2.0164   2.0624   2.0942

     occupation numbers 
     1.0000   1.0000   1.0000   1.0000   1.0000   1.0000   1.0000   1.0000
     1.0000   1.0000   1.0000   1.0000   1.0000   1.0000   1.0000   1.0000
     1.0000   1.0000   1.0000   1.0000   1.0000   1.0000   1.0000   1.0000
     1.0000   1.0000   1.0000   1.0000   1.0000   1.0000   1.0000   1.0000
     1.0000   1.0000   1.0000   1.0000   1.0000   1.0000   1.0000   1.0000
     1.0000   1.0000   1.0000   1.0000   1.0000   1.0000   1.0000   1.0000
     1.0000   1.0000   1.0000   1.0000   1.0000   1.0000   1.0000   1.0000
     1.0000   1.0000   1.0000   1.0000   1.0000   1.0000   1.0000   1.0000
     1.0000   1.0000   1.0000   1.0000   1.0000   1.0000   1.0000   1.0000
     1.0000   1.0000   1.0000   1.0000   1.0000   1.0000   1.0000   1.0000
     1.0000   1.0000   1.0000   1.0000   1.0000   1.0000   1.0000   1.0000
     1.0000   1.0000   1.0000   1.0000   1.0000   1.0000   1.0000   1.0000
     1.0000   1.0000   1.0000   1.0000   1.0000   1.0000   1.0000   1.0000
     1.0000   1.0000   1.0000   1.0000   1.0000   1.0000   1.0000   1.0000
     1.0000   1.0000   1.0000   1.0000   1.0000   1.0000   1.0000   1.0000
     1.0000   1.0000   1.0000   1.0000   1.0000   1.0000   1.0000   1.0000
     1.0000   1.0000   1.0000   1.0000   1.0000   1.0000   1.0000   1.0000
     1.0000   1.0000   1.0000   1.0000   1.0000   1.0000   1.0000   1.0000
     1.0000   1.0000   1.0000   1.0000   1.0000   1.0000   1.0000   1.0000
     1.0000   1.0000   1.0000   1.0000   1.0000   1.0000   1.0000   1.0000
     1.0000   1.0000   1.0000   1.0000   1.0000   1.0000   1.0000   1.0000
     1.0000   1.0000   1.0000   1.0000   1.0000   1.0000   1.0000   1.0000
     1.0000   1.0000   1.0000   1.0000   1.0000   1.0000   1.0000   1.0000
     1.0000   1.0000   1.0000   1.0000   1.0000   1.0000   1.0000   1.0000
     1.0000   1.0000   1.0000   1.0000   1.0000   1.0000   1.0000   1.0000
     0.0000   0.0000   0.0000   0.0000   0.0000   0.0000   0.0000   0.0000
     0.0000   0.0000   0.0000   0.0000   0.0000   0.0000   0.0000   0.0000
     0.0000   0.0000   0.0000   0.0000

 ------ SPIN DOWN ----------


          k = 0.0000 0.0000 0.0000 (161811 PWs)   bands (ev):

   -56.1419 -32.6905 -32.4827 -32.0160 -20.8515 -20.5722 -20.5082 -20.5041
   -20.3369 -20.3109 -20.0024 -19.6967 -19.6826 -19.6802 -19.6700 -19.6695
   -19.5836 -19.3309 -19.2773 -19.2740 -19.1353 -19.0788 -18.7184 -18.5173
   -18.5125 -18.5109 -18.5032 -18.4954 -18.4947 -18.2938 -18.2790 -18.2758
   -18.2489 -18.2279 -18.1522 -18.0003 -17.9524 -17.9429 -17.8663 -17.8353
   -17.6339 -17.6248 -17.6085 -17.5561 -17.5115 -17.4763 -17.4598 -17.3686
   -17.2499 -17.1467 -16.4878 -16.3269 -11.8781 -11.8699 -11.8651 -11.8119
   -11.7992 -11.7985 -11.6918 -11.6694 -11.6596 -11.3228 -11.2933 -11.2820
   -11.2051 -11.1837 -11.0968 -10.9858 -10.8868 -10.8756 -10.4915 -10.4809
   -10.4641 -10.4613 -10.4270 -10.4065 -10.3574 -10.2569 -10.2000 -10.0821
    -9.9263  -9.9206  -9.8208  -9.8199  -9.5980  -9.5790  -9.3978  -9.2920
    -9.0842  -8.9841  -8.9323  -8.9283  -8.7622  -8.5581  -8.4256  -8.3922
    -8.3743  -8.3613  -8.3359  -8.2843  -8.2530  -8.0262  -8.0139  -7.9939
    -7.9919  -7.9746  -7.9608  -7.9572  -7.9569  -7.9529  -7.9272  -7.8489
    -7.8186  -7.7994  -7.7973  -7.7797  -7.7719  -7.7603  -7.7434  -7.7318
    -7.5647  -7.5210  -7.4089  -7.3779  -7.3113  -7.3005  -7.2572  -6.9070
    -6.8704  -6.8595  -6.8559  -6.8390  -6.8279  -6.7923  -6.7375  -6.6738
    -6.6294  -6.6202  -6.6050  -6.6020  -6.5539  -6.5304  -6.3851  -6.3497
    -6.3348  -6.3225  -6.3086  -6.2449  -6.2270  -6.1730  -6.1375  -6.0974
    -6.0923  -6.0351  -6.0223  -5.9872  -5.7496  -5.6476  -5.4893  -5.3185
    -5.2655  -5.1828  -5.1770  -5.1758  -5.1716  -5.1609  -5.1569  -5.1481
    -5.0514  -4.9596  -4.9214  -4.9169  -4.9066  -4.8312  -4.7598  -4.7281
    -4.6918  -4.4771  -4.4507  -4.4272  -4.3770  -4.2719  -4.1329  -3.9437
    -3.8676  -3.8234  -3.8151  -3.8123  -3.7161  -3.6501  -3.6350  -3.5197
    -3.5154  -3.4230  -3.0108  -2.8432  -2.4271   1.0135   1.0850   1.2329
     1.5917   1.5977   1.6046   1.6061   1.6211   1.6263   1.7661   1.7833
     1.7939   1.8329   1.8379   1.8512   1.8562   1.9063   1.9530   1.9791
     2.0320   2.1079   2.1190   2.1401

     occupation numbers 
     1.0000   1.0000   1.0000   1.0000   1.0000   1.0000   1.0000   1.0000
     1.0000   1.0000   1.0000   1.0000   1.0000   1.0000   1.0000   1.0000
     1.0000   1.0000   1.0000   1.0000   1.0000   1.0000   1.0000   1.0000
     1.0000   1.0000   1.0000   1.0000   1.0000   1.0000   1.0000   1.0000
     1.0000   1.0000   1.0000   1.0000   1.0000   1.0000   1.0000   1.0000
     1.0000   1.0000   1.0000   1.0000   1.0000   1.0000   1.0000   1.0000
     1.0000   1.0000   1.0000   1.0000   1.0000   1.0000   1.0000   1.0000
     1.0000   1.0000   1.0000   1.0000   1.0000   1.0000   1.0000   1.0000
     1.0000   1.0000   1.0000   1.0000   1.0000   1.0000   1.0000   1.0000
     1.0000   1.0000   1.0000   1.0000   1.0000   1.0000   1.0000   1.0000
     1.0000   1.0000   1.0000   1.0000   1.0000   1.0000   1.0000   1.0000
     1.0000   1.0000   1.0000   1.0000   1.0000   1.0000   1.0000   1.0000
     1.0000   1.0000   1.0000   1.0000   1.0000   1.0000   1.0000   1.0000
     1.0000   1.0000   1.0000   1.0000   1.0000   1.0000   1.0000   1.0000
     1.0000   1.0000   1.0000   1.0000   1.0000   1.0000   1.0000   1.0000
     1.0000   1.0000   1.0000   1.0000   1.0000   1.0000   1.0000   1.0000
     1.0000   1.0000   1.0000   1.0000   1.0000   1.0000   1.0000   1.0000
     1.0000   1.0000   1.0000   1.0000   1.0000   1.0000   1.0000   1.0000
     1.0000   1.0000   1.0000   1.0000   1.0000   1.0000   1.0000   1.0000
     1.0000   1.0000   1.0000   1.0000   1.0000   1.0000   1.0000   1.0000
     1.0000   1.0000   1.0000   1.0000   1.0000   1.0000   1.0000   1.0000
     1.0000   1.0000   1.0000   1.0000   1.0000   1.0000   1.0000   1.0000
     1.0000   1.0000   1.0000   1.0000   1.0000   1.0000   1.0000   1.0000
     1.0000   1.0000   1.0000   1.0000   1.0000   1.0000   1.0000   1.0000
     1.0000   1.0000   1.0000   1.0000   1.0000   0.0000   0.0000   0.0000
     0.0000   0.0000   0.0000   0.0000   0.0000   0.0000   0.0000   0.0000
     0.0000   0.0000   0.0000   0.0000   0.0000   0.0000   0.0000   0.0000
     0.0000   0.0000   0.0000   0.0000

          k = 0.0000 0.3849 0.0000 (161877 PWs)   bands (ev):

   -56.1419 -32.6905 -32.4827 -32.0160 -20.8206 -20.6947 -20.5320 -20.4213
   -20.2540 -20.2151 -20.0145 -19.9830 -19.8522 -19.6695 -19.6526 -19.5953
   -19.3537 -19.3168 -19.2978 -19.2000 -18.9358 -18.9173 -18.9150 -18.8879
   -18.6489 -18.6192 -18.5245 -18.5091 -18.4687 -18.2493 -18.2354 -18.2119
   -18.1333 -18.1213 -18.0149 -17.9587 -17.9416 -17.9040 -17.8517 -17.8271
   -17.7591 -17.6923 -17.6442 -17.6258 -17.5289 -17.4772 -17.4173 -17.3821
   -17.2176 -17.1381 -16.4882 -16.3252 -12.0019 -11.9518 -11.9398 -11.7762
   -11.7588 -11.6332 -11.5869 -11.5722 -11.5601 -11.3044 -11.2961 -11.2245
   -11.2132 -11.1557 -11.0782 -11.0523 -10.9997 -10.9049 -10.8671 -10.7725
   -10.7396 -10.5376 -10.4694 -10.3563 -10.0854 -10.0312 -10.0065  -9.9883
    -9.9084  -9.8197  -9.7176  -9.5415  -9.5023  -9.4815  -9.4278  -9.3536
    -9.2151  -9.0774  -8.9644  -8.8767  -8.8283  -8.6897  -8.6042  -8.5254
    -8.4657  -8.3990  -8.3812  -8.3435  -8.3245  -8.2838  -8.2070  -8.1418
    -8.0801  -8.0189  -8.0110  -7.9925  -7.9378  -7.8798  -7.8649  -7.8320
    -7.7708  -7.6328  -7.6056  -7.5981  -7.5292  -7.5183  -7.4943  -7.4066
    -7.3639  -7.3241  -7.3143  -7.2939  -7.2797  -7.2310  -7.2152  -7.1589
    -7.1341  -7.0849  -7.0727  -6.9544  -6.8872  -6.8284  -6.8168  -6.8042
    -6.7919  -6.7807  -6.6278  -6.6095  -6.5630  -6.5111  -6.4775  -6.3785
    -6.3765  -6.3426  -6.3250  -6.2541  -6.1937  -6.0814  -6.0260  -5.8918
    -5.8535  -5.8330  -5.7738  -5.7625  -5.7360  -5.7017  -5.6007  -5.5425
    -5.5152  -5.4421  -5.3867  -5.3244  -5.2965  -5.1768  -5.1679  -5.0946
    -4.9826  -4.9184  -4.8841  -4.8312  -4.8068  -4.7427  -4.6114  -4.6047
    -4.5694  -4.5075  -4.3809  -4.3423  -4.1951  -4.1752  -4.1183  -4.0776
    -4.0229  -3.9740  -3.9282  -3.9033  -3.8070  -3.7214  -3.6060  -3.5406
    -3.4218  -3.3245  -3.0205  -2.8141  -2.4240   1.0097   1.0844   1.2988
     1.5208   1.5344   1.5458   1.6108   1.6271   1.6571   1.6867   1.7225
     1.7473   1.7833   1.8322   1.8644   1.9162   1.9585   2.0193   2.0313
     2.0963   2.1672   2.1881   2.2085

     occupation numbers 
     1.0000   1.0000   1.0000   1.0000   1.0000   1.0000   1.0000   1.0000
     1.0000   1.0000   1.0000   1.0000   1.0000   1.0000   1.0000   1.0000
     1.0000   1.0000   1.0000   1.0000   1.0000   1.0000   1.0000   1.0000
     1.0000   1.0000   1.0000   1.0000   1.0000   1.0000   1.0000   1.0000
     1.0000   1.0000   1.0000   1.0000   1.0000   1.0000   1.0000   1.0000
     1.0000   1.0000   1.0000   1.0000   1.0000   1.0000   1.0000   1.0000
     1.0000   1.0000   1.0000   1.0000   1.0000   1.0000   1.0000   1.0000
     1.0000   1.0000   1.0000   1.0000   1.0000   1.0000   1.0000   1.0000
     1.0000   1.0000   1.0000   1.0000   1.0000   1.0000   1.0000   1.0000
     1.0000   1.0000   1.0000   1.0000   1.0000   1.0000   1.0000   1.0000
     1.0000   1.0000   1.0000   1.0000   1.0000   1.0000   1.0000   1.0000
     1.0000   1.0000   1.0000   1.0000   1.0000   1.0000   1.0000   1.0000
     1.0000   1.0000   1.0000   1.0000   1.0000   1.0000   1.0000   1.0000
     1.0000   1.0000   1.0000   1.0000   1.0000   1.0000   1.0000   1.0000
     1.0000   1.0000   1.0000   1.0000   1.0000   1.0000   1.0000   1.0000
     1.0000   1.0000   1.0000   1.0000   1.0000   1.0000   1.0000   1.0000
     1.0000   1.0000   1.0000   1.0000   1.0000   1.0000   1.0000   1.0000
     1.0000   1.0000   1.0000   1.0000   1.0000   1.0000   1.0000   1.0000
     1.0000   1.0000   1.0000   1.0000   1.0000   1.0000   1.0000   1.0000
     1.0000   1.0000   1.0000   1.0000   1.0000   1.0000   1.0000   1.0000
     1.0000   1.0000   1.0000   1.0000   1.0000   1.0000   1.0000   1.0000
     1.0000   1.0000   1.0000   1.0000   1.0000   1.0000   1.0000   1.0000
     1.0000   1.0000   1.0000   1.0000   1.0000   1.0000   1.0000   1.0000
     1.0000   1.0000   1.0000   1.0000   1.0000   1.0000   1.0000   1.0000
     1.0000   1.0000   1.0000   1.0000   1.0000   0.0000   0.0000   0.0000
     0.0000   0.0000   0.0000   0.0000   0.0000   0.0000   0.0000   0.0000
     0.0000   0.0000   0.0000   0.0000   0.0000   0.0000   0.0000   0.0000
     0.0000   0.0000   0.0000   0.0000

          k = 0.3333 0.5774 0.0000 (161838 PWs)   bands (ev):

   -56.1419 -32.6905 -32.4827 -32.0160 -20.7724 -20.7637 -20.5621 -20.3035
   -20.3002 -20.1666 -20.0099 -19.9736 -19.9644 -19.7506 -19.7239 -19.4494
   -19.3079 -19.2965 -19.2854 -19.0302 -19.0164 -18.9404 -18.9114 -18.9078
   -18.8174 -18.5982 -18.5667 -18.5606 -18.4071 -18.3557 -18.1463 -18.1354
   -18.1265 -18.0865 -17.9742 -17.9456 -17.9287 -17.8584 -17.8416 -17.8063
   -17.7876 -17.7446 -17.6710 -17.6405 -17.6017 -17.4967 -17.3788 -17.3701
   -17.2202 -17.1304 -16.4890 -16.3236 -12.0277 -12.0156 -12.0059 -11.6081
   -11.5841 -11.5776 -11.5689 -11.5158 -11.4770 -11.3962 -11.3854 -11.3076
   -11.2671 -11.2191 -11.2018 -11.1659 -11.0512 -10.9778 -10.7134 -10.5769
   -10.4985 -10.4785 -10.4410 -10.4206 -10.3881 -10.3160 -10.2010 -10.0077
    -9.8633  -9.6438  -9.4965  -9.4549  -9.3405  -9.2598  -9.2289  -9.1317
    -9.1116  -9.0892  -8.9972  -8.9525  -8.9344  -8.8615  -8.8043  -8.7747
    -8.7487  -8.7409  -8.5869  -8.4727  -8.3121  -8.3026  -8.2739  -8.0601
    -7.9611  -7.8238  -7.8172  -7.7905  -7.7050  -7.6986  -7.6950  -7.6864
    -7.6696  -7.6578  -7.6063  -7.5807  -7.5567  -7.5415  -7.4927  -7.4425
    -7.4088  -7.3896  -7.3591  -7.2972  -7.2795  -7.2507  -7.2407  -7.2325
    -7.0757  -7.0643  -7.0542  -7.0256  -7.0095  -6.9805  -6.9732  -6.9395
    -6.8196  -6.8029  -6.6838  -6.6725  -6.5215  -6.4818  -6.3622  -6.3081
    -6.3007  -6.2953  -6.2472  -6.1929  -6.0766  -6.0394  -6.0060  -5.9315
    -5.9148  -5.8807  -5.8172  -5.7723  -5.7652  -5.7507  -5.6999  -5.5644
    -5.4403  -5.3478  -5.3303  -5.3192  -5.2791  -5.2457  -5.2110  -5.1219
    -5.0853  -5.0187  -4.8797  -4.8435  -4.8218  -4.6184  -4.6128  -4.5868
    -4.4013  -4.3485  -4.3258  -4.2467  -4.2143  -4.1741  -4.1306  -4.0944
    -4.0874  -4.0171  -3.9669  -3.9579  -3.9215  -3.8447  -3.5494  -3.5005
    -3.4290  -3.3112  -3.0131  -2.7987  -2.4234   1.0100   1.0884   1.4013
     1.4062   1.5005   1.5270   1.5461   1.5879   1.6031   1.6164   1.6295
     1.8536   1.9262   1.9617   2.0010   2.0431   2.0643   2.0917   2.1080
     2.1135   2.1356   2.1696   2.2129

     occupation numbers 
     1.0000   1.0000   1.0000   1.0000   1.0000   1.0000   1.0000   1.0000
     1.0000   1.0000   1.0000   1.0000   1.0000   1.0000   1.0000   1.0000
     1.0000   1.0000   1.0000   1.0000   1.0000   1.0000   1.0000   1.0000
     1.0000   1.0000   1.0000   1.0000   1.0000   1.0000   1.0000   1.0000
     1.0000   1.0000   1.0000   1.0000   1.0000   1.0000   1.0000   1.0000
     1.0000   1.0000   1.0000   1.0000   1.0000   1.0000   1.0000   1.0000
     1.0000   1.0000   1.0000   1.0000   1.0000   1.0000   1.0000   1.0000
     1.0000   1.0000   1.0000   1.0000   1.0000   1.0000   1.0000   1.0000
     1.0000   1.0000   1.0000   1.0000   1.0000   1.0000   1.0000   1.0000
     1.0000   1.0000   1.0000   1.0000   1.0000   1.0000   1.0000   1.0000
     1.0000   1.0000   1.0000   1.0000   1.0000   1.0000   1.0000   1.0000
     1.0000   1.0000   1.0000   1.0000   1.0000   1.0000   1.0000   1.0000
     1.0000   1.0000   1.0000   1.0000   1.0000   1.0000   1.0000   1.0000
     1.0000   1.0000   1.0000   1.0000   1.0000   1.0000   1.0000   1.0000
     1.0000   1.0000   1.0000   1.0000   1.0000   1.0000   1.0000   1.0000
     1.0000   1.0000   1.0000   1.0000   1.0000   1.0000   1.0000   1.0000
     1.0000   1.0000   1.0000   1.0000   1.0000   1.0000   1.0000   1.0000
     1.0000   1.0000   1.0000   1.0000   1.0000   1.0000   1.0000   1.0000
     1.0000   1.0000   1.0000   1.0000   1.0000   1.0000   1.0000   1.0000
     1.0000   1.0000   1.0000   1.0000   1.0000   1.0000   1.0000   1.0000
     1.0000   1.0000   1.0000   1.0000   1.0000   1.0000   1.0000   1.0000
     1.0000   1.0000   1.0000   1.0000   1.0000   1.0000   1.0000   1.0000
     1.0000   1.0000   1.0000   1.0000   1.0000   1.0000   1.0000   1.0000
     1.0000   1.0000   1.0000   1.0000   1.0000   1.0000   1.0000   1.0000
     1.0000   1.0000   1.0000   1.0000   1.0000   0.0000   0.0000   0.0000
     0.0000   0.0000   0.0000   0.0000   0.0000   0.0000   0.0000   0.0000
     0.0000   0.0000   0.0000   0.0000   0.0000   0.0000   0.0000   0.0000
     0.0000   0.0000   0.0000   0.0000

          k =-0.3333 0.1925 0.0000 (161877 PWs)   bands (ev):

   -56.1419 -32.6905 -32.4827 -32.0160 -20.8184 -20.7007 -20.5327 -20.4088
   -20.2467 -20.2306 -20.0076 -19.9954 -19.8595 -19.6583 -19.6335 -19.6028
   -19.3686 -19.3239 -19.2962 -19.1773 -18.9485 -18.9209 -18.9140 -18.8992
   -18.6364 -18.6190 -18.5285 -18.4984 -18.4703 -18.2416 -18.2367 -18.2057
   -18.1351 -18.1308 -18.0264 -17.9554 -17.9516 -17.8814 -17.8517 -17.8242
   -17.7525 -17.7478 -17.6347 -17.5911 -17.5584 -17.4661 -17.3929 -17.3713
   -17.2453 -17.1350 -16.4891 -16.3240 -12.0128 -11.9483 -11.9412 -11.7545
   -11.7504 -11.6430 -11.5855 -11.5801 -11.5668 -11.3039 -11.3017 -11.2288
   -11.2166 -11.1017 -11.1007 -11.0366 -11.0188 -10.9189 -10.8518 -10.7792
   -10.7143 -10.6150 -10.4213 -10.3902 -10.1046 -10.0424 -10.0019  -9.9678
    -9.9040  -9.7485  -9.7191  -9.5672  -9.5082  -9.4734  -9.4556  -9.2837
    -9.2605  -9.0305  -8.9623  -8.9424  -8.8057  -8.6683  -8.6602  -8.4902
    -8.4777  -8.4250  -8.3786  -8.3427  -8.3004  -8.2878  -8.2138  -8.1440
    -8.1290  -8.0586  -8.0051  -7.9574  -7.9463  -7.8516  -7.8470  -7.8366
    -7.7385  -7.6280  -7.6207  -7.6182  -7.5333  -7.5019  -7.4782  -7.4279
    -7.3651  -7.3194  -7.3009  -7.2941  -7.2635  -7.2318  -7.2291  -7.1621
    -7.1160  -7.0969  -7.0509  -6.9345  -6.9243  -6.8575  -6.8174  -6.8092
    -6.7910  -6.7338  -6.6381  -6.6360  -6.5473  -6.5163  -6.4824  -6.3846
    -6.3535  -6.3357  -6.3278  -6.2532  -6.1455  -6.0844  -6.0700  -5.9227
    -5.8564  -5.8516  -5.8221  -5.7704  -5.7418  -5.6778  -5.5909  -5.5787
    -5.4845  -5.4680  -5.3363  -5.3146  -5.1869  -5.1800  -5.1478  -5.1433
    -4.9904  -4.9121  -4.8543  -4.8521  -4.7976  -4.7861  -4.6341  -4.6050
    -4.6025  -4.4431  -4.3903  -4.3502  -4.2022  -4.1895  -4.1144  -4.0898
    -4.0512  -3.9557  -3.9466  -3.8807  -3.7596  -3.7185  -3.5831  -3.5188
    -3.4901  -3.3429  -3.0011  -2.8152  -2.4259   1.0114   1.0825   1.2986
     1.5139   1.5251   1.5593   1.6247   1.6381   1.6401   1.6901   1.7142
     1.7506   1.7920   1.8724   1.8856   1.9119   1.9326   2.0025   2.0234
     2.1061   2.1541   2.1807   2.1833

     occupation numbers 
     1.0000   1.0000   1.0000   1.0000   1.0000   1.0000   1.0000   1.0000
     1.0000   1.0000   1.0000   1.0000   1.0000   1.0000   1.0000   1.0000
     1.0000   1.0000   1.0000   1.0000   1.0000   1.0000   1.0000   1.0000
     1.0000   1.0000   1.0000   1.0000   1.0000   1.0000   1.0000   1.0000
     1.0000   1.0000   1.0000   1.0000   1.0000   1.0000   1.0000   1.0000
     1.0000   1.0000   1.0000   1.0000   1.0000   1.0000   1.0000   1.0000
     1.0000   1.0000   1.0000   1.0000   1.0000   1.0000   1.0000   1.0000
     1.0000   1.0000   1.0000   1.0000   1.0000   1.0000   1.0000   1.0000
     1.0000   1.0000   1.0000   1.0000   1.0000   1.0000   1.0000   1.0000
     1.0000   1.0000   1.0000   1.0000   1.0000   1.0000   1.0000   1.0000
     1.0000   1.0000   1.0000   1.0000   1.0000   1.0000   1.0000   1.0000
     1.0000   1.0000   1.0000   1.0000   1.0000   1.0000   1.0000   1.0000
     1.0000   1.0000   1.0000   1.0000   1.0000   1.0000   1.0000   1.0000
     1.0000   1.0000   1.0000   1.0000   1.0000   1.0000   1.0000   1.0000
     1.0000   1.0000   1.0000   1.0000   1.0000   1.0000   1.0000   1.0000
     1.0000   1.0000   1.0000   1.0000   1.0000   1.0000   1.0000   1.0000
     1.0000   1.0000   1.0000   1.0000   1.0000   1.0000   1.0000   1.0000
     1.0000   1.0000   1.0000   1.0000   1.0000   1.0000   1.0000   1.0000
     1.0000   1.0000   1.0000   1.0000   1.0000   1.0000   1.0000   1.0000
     1.0000   1.0000   1.0000   1.0000   1.0000   1.0000   1.0000   1.0000
     1.0000   1.0000   1.0000   1.0000   1.0000   1.0000   1.0000   1.0000
     1.0000   1.0000   1.0000   1.0000   1.0000   1.0000   1.0000   1.0000
     1.0000   1.0000   1.0000   1.0000   1.0000   1.0000   1.0000   1.0000
     1.0000   1.0000   1.0000   1.0000   1.0000   1.0000   1.0000   1.0000
     1.0000   1.0000   1.0000   1.0000   1.0000   0.0000   0.0000   0.0000
     0.0000   0.0000   0.0000   0.0000   0.0000   0.0000   0.0000   0.0000
     0.0000   0.0000   0.0000   0.0000   0.0000   0.0000   0.0000   0.0000
     0.0000   0.0000   0.0000   0.0000

          k = 0.3333 0.1925 0.0000 (161877 PWs)   bands (ev):

   -56.1419 -32.6905 -32.4827 -32.0160 -20.8207 -20.6944 -20.5317 -20.4224
   -20.2539 -20.2146 -20.0146 -19.9824 -19.8521 -19.6702 -19.6535 -19.5952
   -19.3533 -19.3161 -19.2981 -19.2001 -18.9358 -18.9175 -18.9142 -18.8878
   -18.6490 -18.6191 -18.5251 -18.5098 -18.4688 -18.2493 -18.2353 -18.2120
   -18.1325 -18.1213 -18.0144 -17.9589 -17.9418 -17.9046 -17.8518 -17.8262
   -17.7595 -17.6921 -17.6449 -17.6257 -17.5297 -17.4764 -17.4169 -17.3815
   -17.2190 -17.1374 -16.4882 -16.3252 -12.0016 -11.9517 -11.9400 -11.7767
   -11.7596 -11.6325 -11.5867 -11.5721 -11.5602 -11.3039 -11.2958 -11.2244
   -11.2133 -11.1553 -11.0781 -11.0524 -11.0004 -10.9045 -10.8668 -10.7730
   -10.7397 -10.5395 -10.4695 -10.3556 -10.0845 -10.0307 -10.0067  -9.9886
    -9.9080  -9.8195  -9.7181  -9.5414  -9.5021  -9.4814  -9.4281  -9.3526
    -9.2168  -9.0767  -8.9642  -8.8765  -8.8286  -8.6893  -8.6043  -8.5248
    -8.4655  -8.3991  -8.3814  -8.3447  -8.3249  -8.2844  -8.2068  -8.1418
    -8.0806  -8.0184  -8.0108  -7.9929  -7.9377  -7.8790  -7.8657  -7.8314
    -7.7706  -7.6326  -7.6051  -7.5979  -7.5291  -7.5188  -7.4942  -7.4061
    -7.3633  -7.3249  -7.3143  -7.2941  -7.2793  -7.2309  -7.2151  -7.1587
    -7.1340  -7.0857  -7.0730  -6.9542  -6.8863  -6.8287  -6.8177  -6.8046
    -6.7917  -6.7811  -6.6276  -6.6096  -6.5637  -6.5112  -6.4779  -6.3790
    -6.3740  -6.3417  -6.3257  -6.2542  -6.1934  -6.0812  -6.0263  -5.8910
    -5.8529  -5.8343  -5.7735  -5.7625  -5.7359  -5.7016  -5.6020  -5.5431
    -5.5158  -5.4396  -5.3885  -5.3235  -5.2969  -5.1770  -5.1681  -5.0940
    -4.9825  -4.9198  -4.8828  -4.8312  -4.8067  -4.7427  -4.6113  -4.6048
    -4.5683  -4.5083  -4.3808  -4.3423  -4.1951  -4.1749  -4.1194  -4.0770
    -4.0227  -3.9745  -3.9287  -3.9024  -3.8059  -3.7217  -3.6046  -3.5417
    -3.4234  -3.3243  -3.0199  -2.8142  -2.4240   1.0097   1.0843   1.2989
     1.5211   1.5334   1.5452   1.6112   1.6272   1.6567   1.6876   1.7224
     1.7465   1.7833   1.8348   1.8649   1.9171   1.9575   2.0229   2.0305
     2.0937   2.1657   2.1864   2.2090

     occupation numbers 
     1.0000   1.0000   1.0000   1.0000   1.0000   1.0000   1.0000   1.0000
     1.0000   1.0000   1.0000   1.0000   1.0000   1.0000   1.0000   1.0000
     1.0000   1.0000   1.0000   1.0000   1.0000   1.0000   1.0000   1.0000
     1.0000   1.0000   1.0000   1.0000   1.0000   1.0000   1.0000   1.0000
     1.0000   1.0000   1.0000   1.0000   1.0000   1.0000   1.0000   1.0000
     1.0000   1.0000   1.0000   1.0000   1.0000   1.0000   1.0000   1.0000
     1.0000   1.0000   1.0000   1.0000   1.0000   1.0000   1.0000   1.0000
     1.0000   1.0000   1.0000   1.0000   1.0000   1.0000   1.0000   1.0000
     1.0000   1.0000   1.0000   1.0000   1.0000   1.0000   1.0000   1.0000
     1.0000   1.0000   1.0000   1.0000   1.0000   1.0000   1.0000   1.0000
     1.0000   1.0000   1.0000   1.0000   1.0000   1.0000   1.0000   1.0000
     1.0000   1.0000   1.0000   1.0000   1.0000   1.0000   1.0000   1.0000
     1.0000   1.0000   1.0000   1.0000   1.0000   1.0000   1.0000   1.0000
     1.0000   1.0000   1.0000   1.0000   1.0000   1.0000   1.0000   1.0000
     1.0000   1.0000   1.0000   1.0000   1.0000   1.0000   1.0000   1.0000
     1.0000   1.0000   1.0000   1.0000   1.0000   1.0000   1.0000   1.0000
     1.0000   1.0000   1.0000   1.0000   1.0000   1.0000   1.0000   1.0000
     1.0000   1.0000   1.0000   1.0000   1.0000   1.0000   1.0000   1.0000
     1.0000   1.0000   1.0000   1.0000   1.0000   1.0000   1.0000   1.0000
     1.0000   1.0000   1.0000   1.0000   1.0000   1.0000   1.0000   1.0000
     1.0000   1.0000   1.0000   1.0000   1.0000   1.0000   1.0000   1.0000
     1.0000   1.0000   1.0000   1.0000   1.0000   1.0000   1.0000   1.0000
     1.0000   1.0000   1.0000   1.0000   1.0000   1.0000   1.0000   1.0000
     1.0000   1.0000   1.0000   1.0000   1.0000   1.0000   1.0000   1.0000
[...]
     atom   37 type  1   force =     0.00000000    0.00000000    0.00000000
     atom   38 type  1   force =     0.00000000    0.00000000    0.00000000
     atom   39 type  1   force =     0.00000000    0.00000000    0.00000000
     atom   40 type  1   force =     0.00000000    0.00000000    0.00000000
     atom   41 type  1   force =     0.00000000    0.00000000    0.00000000
     atom   42 type  1   force =     0.00000000    0.00000000    0.00000000
     atom   43 type  1   force =     0.00000000    0.00000000    0.00000000
     atom   44 type  1   force =     0.00000000    0.00000000    0.00000000
     atom   45 type  1   force =     0.00000000    0.00000000    0.00000000
     atom   46 type  1   force =     0.00000000    0.00000000    0.00000000
     atom   47 type  1   force =     0.00000000    0.00000000    0.00000000
     atom   48 type  1   force =     0.00000000    0.00000000    0.00000000
     atom   49 type  2   force =     0.00000000    0.00000000    0.00000000
     atom   50 type  2   force =     0.00000000    0.00000000    0.00000000
     atom   51 type  2   force =     0.00000000    0.00000000    0.00000000
     atom   52 type  2   force =     0.00000000    0.00000000    0.00000000
     atom   53 type  2   force =     0.00000000    0.00000000    0.00000000
     atom   54 type  2   force =     0.00000000    0.00000000    0.00000000
     atom   55 type  2   force =     0.00000000    0.00000000    0.00000000
     atom   56 type  2   force =     0.00000000    0.00000000    0.00000000
     atom   57 type  2   force =     0.00000000    0.00000000    0.00000000
     atom   58 type  2   force =     0.00000000    0.00000000    0.00000000
     atom   59 type  2   force =     0.00000000    0.00000000    0.00000000
     atom   60 type  2   force =     0.00000000    0.00000000    0.00000000
     atom   61 type  2   force =     0.00000000    0.00000000    0.00000000
     atom   62 type  2   force =     0.00000000    0.00000000    0.00000000
     atom   63 type  2   force =     0.00000000    0.00000000    0.00000000
     atom   64 type  2   force =     0.00000000    0.00000000    0.00000000
     atom   65 type  2   force =     0.00000000    0.00000000    0.00000000
     atom   66 type  2   force =     0.00000000    0.00000000    0.00000000
     atom   67 type  2   force =     0.00000000    0.00000000    0.00000000
     atom   68 type  2   force =     0.00000000    0.00000000    0.00000000
     atom   69 type  2   force =     0.00000000    0.00000000    0.00000000
     atom   70 type  2   force =     0.00000000    0.00000000    0.00000000
     atom   71 type  2   force =     0.00000000    0.00000000    0.00000000
     atom   72 type  2   force =     0.00000000    0.00000000    0.00000000
     atom   73 type  2   force =     0.00000000    0.00000000    0.00000000
     atom   74 type  2   force =     0.00000000    0.00000000    0.00000000
     atom   75 type  2   force =     0.00000000    0.00000000    0.00000000
     atom   76 type  2   force =     0.00000000    0.00000000    0.00000000
     atom   77 type  2   force =     0.00000000    0.00000000    0.00000000
     atom   78 type  2   force =     0.00000000    0.00000000    0.00000000
     atom   79 type  2   force =     0.00000000    0.00000000    0.00000000
     atom   80 type  2   force =     0.00000000    0.00000000    0.00000000
     atom   81 type  2   force =     0.00000000    0.00000000    0.00000000
     atom   82 type  2   force =     0.00000000    0.00000000    0.00000000
     atom   83 type  2   force =     0.00000000    0.00000000    0.00000000
     atom   84 type  2   force =     0.00000000    0.00000000    0.00000000
     atom   85 type  2   force =     0.00000000    0.00000000    0.00000000
     atom   86 type  2   force =     0.00000000    0.00000000    0.00000000
     atom   87 type  2   force =     0.00000000    0.00000000    0.00000000
     atom   88 type  2   force =     0.00000000    0.00000000    0.00000000
     atom   89 type  2   force =     0.00000000    0.00000000    0.00000000
     atom   90 type  2   force =     0.00000000    0.00000000    0.00000000
     atom   91 type  2   force =     0.00000000    0.00000000    0.00000000
     atom   92 type  2   force =     0.00000000    0.00000000    0.00000000
     atom   93 type  2   force =     0.00000000    0.00000000    0.00000000
     atom   94 type  2   force =     0.00000000    0.00000000    0.00000000
     atom   95 type  2   force =     0.00000000    0.00000000    0.00000000
     atom   96 type  2   force =     0.00000000    0.00000000    0.00000000
     atom   97 type  3   force =     0.00000000    0.00000000    0.00000000
     The SCF correction term to forces
     atom    1 type  1   force =    -0.00000010   -0.00000029   -0.00000011
     atom    2 type  1   force =    -0.00000038   -0.00000006   -0.00000004
     atom    3 type  1   force =     0.00000023    0.00000006   -0.00000002
     atom    4 type  1   force =    -0.00000004   -0.00000016   -0.00000001
     atom    5 type  1   force =    -0.00000029   -0.00000004   -0.00000003
     atom    6 type  1   force =    -0.00000029   -0.00000012   -0.00000011
     atom    7 type  1   force =    -0.00000026   -0.00000008   -0.00000019
     atom    8 type  1   force =    -0.00000015   -0.00000079   -0.00000020
     atom    9 type  1   force =    -0.00000067   -0.00000042   -0.00000016
     atom   10 type  1   force =    -0.00000100    0.00000004   -0.00000009
     atom   11 type  1   force =     0.00000003    0.00000021    0.00000003
     atom   12 type  1   force =     0.00000028   -0.00000006    0.00000003
     atom   13 type  1   force =    -0.00000012   -0.00000000   -0.00000006
     atom   14 type  1   force =    -0.00000011   -0.00000002   -0.00000016
     atom   15 type  1   force =     0.00000004   -0.00000066   -0.00000016
     atom   16 type  1   force =     0.00000020   -0.00000052   -0.00000024
     atom   17 type  1   force =    -0.00000044   -0.00000102   -0.00000031
     atom   18 type  1   force =    -0.00000176    0.00000161    0.00000009
     atom   19 type  1   force =     0.00000025   -0.00000001    0.00000017
     atom   20 type  1   force =     0.00000028   -0.00000028    0.00000004
     atom   21 type  1   force =    -0.00000006    0.00000003   -0.00000005
     atom   22 type  1   force =     0.00000022   -0.00000025   -0.00000007
     atom   23 type  1   force =     0.00000060    0.00000019   -0.00000019
     atom   24 type  1   force =     0.00000220    0.00000119   -0.00000041
     atom   25 type  1   force =    -0.00000152    0.00000090    0.00000019
     atom   26 type  1   force =     0.00000000   -0.00000020    0.00000006
     atom   27 type  1   force =     0.00000027   -0.00000004    0.00000001
     atom   28 type  1   force =    -0.00000005    0.00000012   -0.00000005
     atom   29 type  1   force =     0.00000024    0.00000028   -0.00000010
     atom   30 type  1   force =    -0.00000014    0.00000216   -0.00000000
     atom   31 type  1   force =     0.00000145    0.00000126    0.00000018
     atom   32 type  1   force =     0.00000277   -0.00000114    0.00000013
     atom   33 type  1   force =    -0.00000013    0.00000036    0.00000001
     atom   34 type  1   force =     0.00000017   -0.00000032    0.00000003
     atom   35 type  1   force =     0.00000032    0.00000016   -0.00000003
     atom   36 type  1   force =     0.00000006    0.00000002   -0.00000013
     atom   37 type  1   force =    -0.00000037    0.00000023   -0.00000007
     atom   38 type  1   force =    -0.00000218   -0.00000016    0.00000013
     atom   39 type  1   force =    -0.00000131   -0.00000196    0.00000017
     atom   40 type  1   force =     0.00000006   -0.00000028   -0.00000001
     atom   41 type  1   force =    -0.00000004    0.00000004    0.00000001
     atom   42 type  1   force =    -0.00000029    0.00000007   -0.00000003
     atom   43 type  1   force =    -0.00000006   -0.00000044   -0.00000006
     atom   44 type  1   force =    -0.00000035    0.00000013   -0.00000009
     atom   45 type  1   force =    -0.00000015    0.00000006   -0.00000003
     atom   46 type  1   force =    -0.00000027   -0.00000004   -0.00000003
     atom   47 type  1   force =     0.00000023   -0.00000010   -0.00000009
     atom   48 type  1   force =     0.00000004   -0.00000016   -0.00000006
     atom   49 type  2   force =    -0.00000023   -0.00000085   -0.00000049
     atom   50 type  2   force =    -0.00000125   -0.00000034   -0.00000007
     atom   51 type  2   force =    -0.00000073   -0.00000001   -0.00000004
     atom   52 type  2   force =     0.00000032    0.00000027    0.00000006
     atom   53 type  2   force =     0.00000012    0.00000018    0.00000006
     atom   54 type  2   force =    -0.00000020    0.00000004   -0.00000017
     atom   55 type  2   force =    -0.00000003   -0.00000037   -0.00000036
     atom   56 type  2   force =     0.00000012   -0.00000095   -0.00000035
     atom   57 type  2   force =    -0.00000017   -0.00000115   -0.00000023
     atom   58 type  2   force =    -0.00000206   -0.00000065   -0.00000036
     atom   59 type  2   force =    -0.00000153    0.00000147   -0.00000004
     atom   60 type  2   force =     0.00000107    0.00000032    0.00000009
     atom   61 type  2   force =     0.00000029   -0.00000019    0.00000008
     atom   62 type  2   force =    -0.00000018   -0.00000029   -0.00000026
     atom   63 type  2   force =     0.00000015   -0.00000042   -0.00000013
     atom   64 type  2   force =     0.00000054   -0.00000069   -0.00000033
     atom   65 type  2   force =     0.00000089   -0.00000130   -0.00000067
     atom   66 type  2   force =    -0.00000191    0.00000178    0.00000023
     atom   67 type  2   force =    -0.00000195    0.00000149    0.00000035
     atom   68 type  2   force =     0.00000049   -0.00000104    0.00000008
     atom   69 type  2   force =     0.00000008   -0.00000052    0.00000002
     atom   70 type  2   force =     0.00000019    0.00000009   -0.00000002
     atom   71 type  2   force =     0.00000081    0.00000006   -0.00000019
     atom   72 type  2   force =     0.00000255    0.00000235   -0.00000046
     atom   73 type  2   force =     0.00000253    0.00000069    0.00000064
     atom   74 type  2   force =    -0.00000130    0.00000037   -0.00000002
     atom   75 type  2   force =     0.00000020   -0.00000066    0.00000009
     atom   76 type  2   force =     0.00000068    0.00000027   -0.00000002
     atom   77 type  2   force =     0.00000040    0.00000026   -0.00000030
     atom   78 type  2   force =    -0.00000030    0.00000138   -0.00000011
     atom   79 type  2   force =    -0.00000366    0.00000319    0.00000059
     atom   80 type  2   force =     0.00000142   -0.00000524    0.00000082
     atom   81 type  2   force =     0.00000086   -0.00000040   -0.00000003
     atom   82 type  2   force =    -0.00000004    0.00000024    0.00000009
     atom   83 type  2   force =    -0.00000008    0.00000050   -0.00000007
     atom   84 type  2   force =     0.00000039   -0.00000022   -0.00000024
     atom   85 type  2   force =    -0.00000026   -0.00000006   -0.00000038
     atom   86 type  2   force =    -0.00000136    0.00000004   -0.00000003
     atom   87 type  2   force =    -0.00000268   -0.00000138    0.00000020
     atom   88 type  2   force =    -0.00000019   -0.00000188    0.00000018
     atom   89 type  2   force =    -0.00000034    0.00000036    0.00000010
     atom   90 type  2   force =    -0.00000078    0.00000012   -0.00000006
     atom   91 type  2   force =    -0.00000076   -0.00000036   -0.00000016
     atom   92 type  2   force =    -0.00000014   -0.00000068   -0.00000018
     atom   93 type  2   force =    -0.00000034    0.00000003   -0.00000011
     atom   94 type  2   force =    -0.00000034    0.00000000    0.00000001
     atom   95 type  2   force =     0.00000004   -0.00000028   -0.00000010
     atom   96 type  2   force =     0.00000029   -0.00000006   -0.00000031
     atom   97 type  3   force =     0.00001396    0.00000790    0.00000289

     Total force =     0.002502     Total SCF correction =     0.000021

     bfgs converged in  19 scf cycles and  18 bfgs steps
     (criteria: energy <  1.0E-05 Ry, force <  1.0E-03 Ry/Bohr)

     End of BFGS Geometry Optimization

     Final energy   =   -1350.4296751426 Ry
Begin final coordinates

ATOMIC_POSITIONS (crystal)
B        0.047378966   0.094613741   0.495554675
B        0.047293839   0.237469325   0.495415798
B        0.047236098   0.380348590   0.495820854
B        0.047103701   0.523156147   0.495921207
B        0.047078027   0.665939489   0.496219201
B        0.047090936   0.808840262   0.496443396
B        0.047397025   0.951879760   0.496081970
B        0.190893231   0.095488315   0.497789491
B        0.189841511   0.237185228   0.499157376
B        0.189905390   0.380191105   0.501069741
B        0.190052700   0.523043685   0.500447873
B        0.190392220   0.665973322   0.498445855
B        0.190253344   0.809009394   0.496506813
B        0.190428387   0.952184965   0.496334958
B        0.333619522   0.095642456   0.498017306
B        0.334733889   0.239664769   0.503403117
B        0.331363415   0.379742230   0.512684398
B        0.332529789   0.521841707   0.515494436
B        0.333675719   0.665556419   0.505299787
B        0.333275267   0.808862861   0.498513092
B        0.333315417   0.952189455   0.496177635
B        0.476218671   0.095371044   0.495964157
B        0.476592894   0.238994180   0.500332794
B        0.481284990   0.385825352   0.515367389
B        0.477359285   0.666660492   0.514845778
B        0.476198976   0.809199653   0.500485390
B        0.476091582   0.952154729   0.496059230
B        0.618922450   0.094847703   0.494784153
B        0.618969104   0.237608978   0.496029192
B        0.619223563   0.380020699   0.501715388
B        0.613503644   0.517957326   0.515174335
B        0.619521376   0.667867104   0.511913016
B        0.619057237   0.809334933   0.500904020
B        0.618899715   0.952013013   0.496018288
B        0.761742771   0.094746331   0.494345934
B        0.761710126   0.237537509   0.494257823
B        0.761641576   0.380276666   0.495958563
B        0.760296200   0.522658349   0.500316500
B        0.759647717   0.664536761   0.503535851
B        0.762111186   0.809433026   0.499350870
B        0.761789872   0.951961178   0.495625292
B        0.904579999   0.094676621   0.494389411
B        0.904507407   0.237506616   0.494197803
B        0.904402753   0.380320885   0.494604533
B        0.903900995   0.523032629   0.495924325
B        0.903646342   0.665642940   0.498220558
B        0.903808876   0.808384105   0.498100262
B        0.904662432   0.951890544   0.495733792
N        0.095243789   0.047198544   0.496142552
N        0.094494744   0.189448136   0.495916190
N        0.094410644   0.332494179   0.496575735
N        0.094539262   0.475564098   0.496570709
N        0.094857364   0.618473892   0.496474190
N        0.094881334   0.761328985   0.496209959
N        0.095038115   0.904234097   0.496146353
N        0.238146820   0.047405440   0.497230410
N        0.238466581   0.190471209   0.500246871
N        0.236094958   0.331288088   0.502391732
N        0.236740798   0.475290027   0.504022577
N        0.237825445   0.618471279   0.501570465
N        0.237831645   0.761421179   0.497715980
N        0.237931215   0.904385990   0.496149863
N        0.380913884   0.047479580   0.496345257
N        0.381237407   0.190628024   0.500773825
N        0.382669702   0.334643067   0.509562121
N        0.374553308   0.471418908   0.526908815
N        0.380876699   0.618328807   0.513216962
N        0.380770403   0.761424701   0.501713950
N        0.380774332   0.904401417   0.496523119
N        0.523695138   0.047455191   0.495192107
N        0.523821382   0.190429308   0.496712443
N        0.524592162   0.333819015   0.504291069
N        0.527749504   0.624524838   0.525417562
N        0.523945757   0.762490699   0.503718517
N        0.523684822   0.904717787   0.496754993
N        0.666573790   0.047319923   0.494872547
N        0.666587534   0.189890243   0.494570607
N        0.666840452   0.332401350   0.497031132
N        0.665477787   0.474645180   0.504158165
N        0.664641116   0.616583308   0.509236621
N        0.667997439   0.763179613   0.502174977
N        0.666757884   0.904840555   0.496709869
N        0.809444158   0.047260958   0.494405281
N        0.809333732   0.189924372   0.494002417
N        0.809360322   0.332657101   0.494457433
N        0.808847134   0.475428486   0.496647323
N        0.808667778   0.618020896   0.500974759
N        0.808837324   0.760807927   0.500635924
N        0.809832076   0.904776507   0.496187090
N        0.952200574   0.047062197   0.494950848
N        0.951994257   0.189812453   0.494224775
N        0.951925372   0.332666572   0.494628677
N        0.951804416   0.475550443   0.495051244
N        0.951792824   0.618338723   0.496424668
N        0.951874472   0.761118116   0.497466891
N        0.952081213   0.904030509   0.496335696
Ti       0.490470496   0.509445064   0.579405106
End final coordinates



     Writing output data file BN.save
 
     init_run     :      4.71s CPU      5.32s WALL (       1 calls)
     electrons    :   1463.57s CPU   1734.95s WALL (      19 calls)
     update_pot   :     50.57s CPU     77.50s WALL (      18 calls)
     forces       :     52.01s CPU     66.82s WALL (      19 calls)

     Called by init_run:
     wfcinit      :      2.45s CPU      2.74s WALL (       1 calls)
     wfcinit:atom :      0.02s CPU      0.03s WALL (       1 calls)
     wfcinit:wfcr :      2.35s CPU      2.57s WALL (       1 calls)
     potinit      :      0.55s CPU      0.59s WALL (       1 calls)

     Called by electrons:
     c_bands      :   1062.69s CPU   1145.53s WALL (     219 calls)
     sum_band     :    208.18s CPU    291.42s WALL (     219 calls)
     v_of_rho     :     35.76s CPU     38.77s WALL (     222 calls)
     v_h          :      1.29s CPU      1.33s WALL (     222 calls)
     v_xc         :     34.46s CPU     37.43s WALL (     222 calls)
     mix_rho      :     11.26s CPU     11.73s WALL (     219 calls)

     Called by c_bands:
     init_us_2    :     15.62s CPU     15.81s WALL (     439 calls)
     cegterg      :   1002.37s CPU   1063.06s WALL (     219 calls)

     Called by sum_band:

     Called by *egterg:
     h_psi        :    617.07s CPU    628.43s WALL (    1260 calls)
     g_psi        :      3.27s CPU      3.30s WALL (    1040 calls)
     cdiaghg      :     71.85s CPU     89.63s WALL (    1225 calls)
     cegterg:over :    105.98s CPU    107.58s WALL (    1040 calls)
     cegterg:upda :    131.02s CPU    132.84s WALL (    1040 calls)
     cegterg:last :     39.94s CPU     40.45s WALL (     221 calls)
     cdiaghg:chol :      3.12s CPU      4.17s WALL (    1225 calls)
     cdiaghg:inve :      0.37s CPU      0.43s WALL (    1225 calls)
     cdiaghg:para :      8.20s CPU     10.26s WALL (    2450 calls)

     Called by h_psi:
     h_psi:pot    :    607.27s CPU    618.53s WALL (    1260 calls)
     h_psi:calbec :    128.64s CPU    130.34s WALL (    1260 calls)
     vloc_psi     :    345.83s CPU    355.26s WALL (    1260 calls)
     add_vuspsi   :    132.78s CPU    132.92s WALL (    1260 calls)

     General routines
     calbec       :    144.48s CPU    146.38s WALL (    1336 calls)
     fft          :     24.83s CPU     29.00s WALL (    4707 calls)
     fftw         :    356.99s CPU    367.60s WALL (  298616 calls)
 
     Parallel routines
     fft_scatter  :    151.65s CPU    162.29s WALL (  303323 calls)
 
     PWSCF        : 26m55.17s CPU    32m55.02s WALL

 
   This run was terminated on:  17:52:41   9Mar2020            

=------------------------------------------------------------------------------=
   JOB DONE.
=------------------------------------------------------------------------------=
