
     Program PWSCF v.6.1 (svn rev. 13369) starts on 10Feb2021 at 22:46:43 

     This program is part of the open-source Quantum ESPRESSO suite
     for quantum simulation of materials; please cite
         "P. Giannozzi et al., J. Phys.:Condens. Matter 21 395502 (2009);
          URL http://www.quantum-espresso.org", 
     in publications or presentations arising from this work. More details at
     http://www.quantum-espresso.org/quote

     Parallel version (MPI), running on   160 processors
     K-points division:     npool     =       2
     R & G space division:  proc/nbgrp/npool/nimage =      80
     Reading input from relax.in

     Current dimensions of program PWSCF are:
     Max number of different atomic species (ntypx) = 10
     Max number of k-points (npk) = 120000
     Max angular momentum in pseudopotentials (lmaxx) =  3

     Subspace diagonalization in iterative solution of the eigenvalue problem:
     a serial algorithm will be used

 
     Parallelization info
     --------------------
     sticks:   dense  smooth     PW     G-vecs:    dense   smooth      PW
     Min         153     153     38                14461    14461    1806
     Max         154     154     39                14464    14464    1813
     Sum       12259   12259   3067              1156971  1156971  144701
 


     bravais-lattice index     =            0
     lattice parameter (alat)  =      28.4287  a.u.
     unit-cell volume          =   20997.3881 (a.u.)^3
     number of atoms/cell      =           72
     number of atomic types    =            3
     number of electrons       =       288.00 (up: 144.00, down: 144.00)
     number of Kohn-Sham states=          168
     kinetic-energy cutoff     =      55.0000  Ry
     charge density cutoff     =     220.0000  Ry
     convergence threshold     =      1.0E-08
     mixing beta               =       0.7000
     number of iterations used =            8  plain     mixing
     Exchange-correlation      = PBE ( 1  4  3  4 0 0)
     nstep                     =         1000


     celldm(1)=  28.428666  celldm(2)=   0.000000  celldm(3)=   0.000000
     celldm(4)=   0.000000  celldm(5)=   0.000000  celldm(6)=   0.000000

     crystal axes: (cart. coord. in units of alat)
               a(1) = (   1.000000   0.000000   0.000000 )  
               a(2) = (  -0.499999   0.866026   0.000000 )  
               a(3) = (   0.000000   0.000000   1.055273 )  

     reciprocal axes: (cart. coord. in units 2 pi/alat)
               b(1) = (  1.000000  0.577349  0.000000 )  
               b(2) = (  0.000000  1.154700  0.000000 )  
               b(3) = (  0.000000  0.000000  0.947622 )  


     PseudoPot. # 1 for B  read from file:
     ~/pseudo-ONCV-proj/B_ONCV_PBE-1.0.upf
     MD5 check sum: Not computed, couldn't open file
     Pseudo is Norm-conserving, Zval =  3.0
     Generated using ONCVPSP code by D. R. Hamann
     Using radial grid of 1534 points,  4 beta functions with: 
                l(1) =   0
                l(2) =   0
                l(3) =   1
                l(4) =   1

     PseudoPot. # 2 for N  read from file:
     ~/pseudo-ONCV-proj/N_ONCV_PBE-1.0.upf
     MD5 check sum: Not computed, couldn't open file
     Pseudo is Norm-conserving, Zval =  5.0
     Generated using ONCVPSP code by D. R. Hamann
     Using radial grid of 1058 points,  4 beta functions with: 
                l(1) =   0
                l(2) =   0
                l(3) =   1
                l(4) =   1

     PseudoPot. # 3 for C  read from file:
     ~/pseudo-ONCV-proj/C_ONCV_PBE-1.0.upf
     MD5 check sum: Not computed, couldn't open file
     Pseudo is Norm-conserving, Zval =  4.0
     Generated using ONCVPSP code by D. R. Hamann
     Using radial grid of 1248 points,  4 beta functions with: 
                l(1) =   0
                l(2) =   0
                l(3) =   1
                l(4) =   1

     atomic species   valence    mass     pseudopotential
        B              3.00    10.81100     B ( 1.00)
        N              5.00    14.00674     N ( 1.00)
        C              4.00    12.01070     C ( 1.00)

     Starting magnetic structure 
     atomic species   magnetization
        B            1.000
        N            0.000
        C            0.000

      2 Sym. Ops. (no inversion) found


                                    s                        frac. trans.

      isym =  1     identity                                     

 cryst.   s( 1) = (     1          0          0      )
                  (     0          1          0      )
                  (     0          0          1      )

 cart.    s( 1) = (  1.0000000 -0.0000000  0.0000000 )
                  (  0.0000000  1.0000000  0.0000000 )
                  (  0.0000000  0.0000000  1.0000000 )


      isym =  2     inv. 180 deg rotation - cart. axis [0,0,1]   

 cryst.   s( 2) = (     1          0          0      )
                  (     0          1          0      )
                  (     0          0         -1      )

 cart.    s( 2) = (  1.0000000 -0.0000000  0.0000000 )
                  (  0.0000000  1.0000000  0.0000000 )
                  (  0.0000000  0.0000000 -1.0000000 )


   Cartesian axes

     site n.     atom                  positions (alat units)
         1           B   tau(   1) = (  -0.0000004   0.0962250   0.5276366  )
         2           B   tau(   2) = (  -0.0833337   0.2405630   0.5276366  )
         3           B   tau(   3) = (  -0.1666666   0.3849001   0.5276366  )
         4           B   tau(   4) = (  -0.2499999   0.5292380   0.5276366  )
         5           B   tau(   5) = (  -0.3333332   0.6735760   0.5276366  )
         6           B   tau(   6) = (  -0.4166660   0.8179130   0.5276366  )
         7           B   tau(   7) = (   0.1666666   0.0962250   0.5276366  )
         8           B   tau(   8) = (   0.0833333   0.2405630   0.5276366  )
         9           B   tau(   9) = (   0.0000005   0.3849001   0.5276366  )
        10           B   tau(  10) = (  -0.0833329   0.5292380   0.5276366  )
        11           B   tau(  11) = (  -0.1666662   0.6735760   0.5276366  )
        12           B   tau(  12) = (  -0.2499990   0.8179130   0.5276366  )
        13           B   tau(  13) = (   0.3333326   0.0962250   0.5276366  )
        14           B   tau(  14) = (   0.2499993   0.2405630   0.5276366  )
        15           B   tau(  15) = (   0.1666664   0.3849001   0.5276366  )
        16           B   tau(  16) = (   0.0833331   0.5292380   0.5276366  )
        17           B   tau(  17) = (  -0.0000002   0.6735760   0.5276366  )
        18           B   tau(  18) = (  -0.0833330   0.8179130   0.5276366  )
        19           B   tau(  19) = (   0.4999996   0.0962250   0.5276366  )
        20           B   tau(  20) = (   0.4166663   0.2405630   0.5276366  )
        21           B   tau(  21) = (   0.3333334   0.3849001   0.5276366  )
        22           B   tau(  22) = (   0.1666667   0.6735760   0.5276366  )
        23           B   tau(  23) = (   0.0833339   0.8179130   0.5276366  )
        24           B   tau(  24) = (   0.6666666   0.0962250   0.5276366  )
        25           B   tau(  25) = (   0.5833332   0.2405630   0.5276366  )
        26           B   tau(  26) = (   0.5000004   0.3849001   0.5276366  )
        27           B   tau(  27) = (   0.4166671   0.5292380   0.5276366  )
        28           B   tau(  28) = (   0.3333337   0.6735760   0.5276366  )
        29           B   tau(  29) = (   0.2500009   0.8179130   0.5276366  )
        30           B   tau(  30) = (   0.8333327   0.0962250   0.5276366  )
        31           B   tau(  31) = (   0.7499993   0.2405630   0.5276366  )
        32           B   tau(  32) = (   0.6666665   0.3849001   0.5276366  )
        33           B   tau(  33) = (   0.5833332   0.5292380   0.5276366  )
        34           B   tau(  34) = (   0.4999998   0.6735760   0.5276366  )
        35           B   tau(  35) = (   0.4166670   0.8179130   0.5276366  )
        36           N   tau(  36) = (   0.0833336   0.0481121   0.5276366  )
        37           N   tau(  37) = (   0.0000002   0.1924500   0.5276366  )
        38           N   tau(  38) = (  -0.0833326   0.3367871   0.5276366  )
        39           N   tau(  39) = (  -0.1666659   0.4811251   0.5276366  )
        40           N   tau(  40) = (  -0.2499993   0.6254630   0.5276366  )
        41           N   tau(  41) = (  -0.3333321   0.7698001   0.5276366  )
        42           N   tau(  42) = (   0.2500005   0.0481121   0.5276366  )
        43           N   tau(  43) = (   0.1666672   0.1924500   0.5276366  )
        44           N   tau(  44) = (   0.0833344   0.3367871   0.5276366  )
        45           N   tau(  45) = (   0.0000011   0.4811251   0.5276366  )
        46           N   tau(  46) = (  -0.0833323   0.6254630   0.5276366  )
        47           N   tau(  47) = (  -0.1666651   0.7698001   0.5276366  )
        48           N   tau(  48) = (   0.4166666   0.0481121   0.5276366  )
        49           N   tau(  49) = (   0.3333332   0.1924500   0.5276366  )
        50           N   tau(  50) = (   0.2500004   0.3367871   0.5276366  )
        51           N   tau(  51) = (   0.0833338   0.6254630   0.5276366  )
        52           N   tau(  52) = (   0.0000009   0.7698001   0.5276366  )
        53           N   tau(  53) = (   0.5833335   0.0481121   0.5276366  )
        54           N   tau(  54) = (   0.5000002   0.1924500   0.5276366  )
        55           N   tau(  55) = (   0.4166673   0.3367871   0.5276366  )
        56           N   tau(  56) = (   0.3333340   0.4811251   0.5276366  )
        57           N   tau(  57) = (   0.2500007   0.6254630   0.5276366  )
        58           N   tau(  58) = (   0.1666678   0.7698001   0.5276366  )
        59           N   tau(  59) = (   0.7500006   0.0481121   0.5276366  )
        60           N   tau(  60) = (   0.6666673   0.1924500   0.5276366  )
        61           N   tau(  61) = (   0.5833344   0.3367871   0.5276366  )
        62           N   tau(  62) = (   0.5000011   0.4811251   0.5276366  )
        63           N   tau(  63) = (   0.4166678   0.6254630   0.5276366  )
        64           N   tau(  64) = (   0.3333349   0.7698001   0.5276366  )
        65           N   tau(  65) = (   0.9166666   0.0481121   0.5276366  )
        66           N   tau(  66) = (   0.8333333   0.1924500   0.5276366  )
        67           N   tau(  67) = (   0.7500004   0.3367871   0.5276366  )
        68           N   tau(  68) = (   0.6666671   0.4811251   0.5276366  )
        69           N   tau(  69) = (   0.5833338   0.6254630   0.5276366  )
        70           N   tau(  70) = (   0.5000009   0.7698001   0.5276366  )
        71           C   tau(  71) = (   0.2500001   0.5292380   0.5276366  )
        72           C   tau(  72) = (   0.1666671   0.4811251   0.5276366  )

   Crystallographic axes

     site n.     atom                  positions (cryst. coord.)
         1           B   tau(   1) = (  0.0555550  0.1111110  0.5000000  )
         2           B   tau(   2) = (  0.0555550  0.2777780  0.5000000  )
         3           B   tau(   3) = (  0.0555550  0.4444440  0.5000000  )
         4           B   tau(   4) = (  0.0555550  0.6111110  0.5000000  )
         5           B   tau(   5) = (  0.0555550  0.7777780  0.5000000  )
         6           B   tau(   6) = (  0.0555550  0.9444440  0.5000000  )
         7           B   tau(   7) = (  0.2222220  0.1111110  0.5000000  )
         8           B   tau(   8) = (  0.2222220  0.2777780  0.5000000  )
         9           B   tau(   9) = (  0.2222220  0.4444440  0.5000000  )
        10           B   tau(  10) = (  0.2222220  0.6111110  0.5000000  )
        11           B   tau(  11) = (  0.2222220  0.7777780  0.5000000  )
        12           B   tau(  12) = (  0.2222220  0.9444440  0.5000000  )
        13           B   tau(  13) = (  0.3888880  0.1111110  0.5000000  )
        14           B   tau(  14) = (  0.3888880  0.2777780  0.5000000  )
        15           B   tau(  15) = (  0.3888880  0.4444440  0.5000000  )
        16           B   tau(  16) = (  0.3888880  0.6111110  0.5000000  )
        17           B   tau(  17) = (  0.3888880  0.7777780  0.5000000  )
        18           B   tau(  18) = (  0.3888880  0.9444440  0.5000000  )
        19           B   tau(  19) = (  0.5555550  0.1111110  0.5000000  )
        20           B   tau(  20) = (  0.5555550  0.2777780  0.5000000  )
        21           B   tau(  21) = (  0.5555550  0.4444440  0.5000000  )
        22           B   tau(  22) = (  0.5555550  0.7777780  0.5000000  )
        23           B   tau(  23) = (  0.5555550  0.9444440  0.5000000  )
        24           B   tau(  24) = (  0.7222220  0.1111110  0.5000000  )
        25           B   tau(  25) = (  0.7222219  0.2777780  0.5000000  )
        26           B   tau(  26) = (  0.7222220  0.4444440  0.5000000  )
        27           B   tau(  27) = (  0.7222220  0.6111110  0.5000000  )
        28           B   tau(  28) = (  0.7222220  0.7777780  0.5000000  )
        29           B   tau(  29) = (  0.7222220  0.9444440  0.5000000  )
        30           B   tau(  30) = (  0.8888880  0.1111110  0.5000000  )
        31           B   tau(  31) = (  0.8888880  0.2777780  0.5000000  )
        32           B   tau(  32) = (  0.8888880  0.4444440  0.5000000  )
        33           B   tau(  33) = (  0.8888880  0.6111110  0.5000000  )
        34           B   tau(  34) = (  0.8888880  0.7777780  0.5000000  )
        35           B   tau(  35) = (  0.8888880  0.9444440  0.5000000  )
        36           N   tau(  36) = (  0.1111110  0.0555550  0.5000000  )
        37           N   tau(  37) = (  0.1111110  0.2222220  0.5000000  )
        38           N   tau(  38) = (  0.1111110  0.3888880  0.5000000  )
        39           N   tau(  39) = (  0.1111110  0.5555550  0.5000000  )
        40           N   tau(  40) = (  0.1111110  0.7222219  0.5000000  )
        41           N   tau(  41) = (  0.1111110  0.8888880  0.5000000  )
        42           N   tau(  42) = (  0.2777780  0.0555550  0.5000000  )
        43           N   tau(  43) = (  0.2777780  0.2222220  0.5000000  )
        44           N   tau(  44) = (  0.2777780  0.3888880  0.5000000  )
        45           N   tau(  45) = (  0.2777780  0.5555550  0.5000000  )
        46           N   tau(  46) = (  0.2777780  0.7222219  0.5000000  )
        47           N   tau(  47) = (  0.2777780  0.8888880  0.5000000  )
        48           N   tau(  48) = (  0.4444440  0.0555550  0.5000000  )
        49           N   tau(  49) = (  0.4444440  0.2222220  0.5000000  )
        50           N   tau(  50) = (  0.4444440  0.3888880  0.5000000  )
        51           N   tau(  51) = (  0.4444440  0.7222219  0.5000000  )
        52           N   tau(  52) = (  0.4444440  0.8888880  0.5000000  )
        53           N   tau(  53) = (  0.6111110  0.0555550  0.5000000  )
        54           N   tau(  54) = (  0.6111110  0.2222220  0.5000000  )
        55           N   tau(  55) = (  0.6111109  0.3888880  0.5000000  )
        56           N   tau(  56) = (  0.6111110  0.5555550  0.5000000  )
        57           N   tau(  57) = (  0.6111109  0.7222219  0.5000000  )
        58           N   tau(  58) = (  0.6111110  0.8888880  0.5000000  )
        59           N   tau(  59) = (  0.7777780  0.0555550  0.5000000  )
        60           N   tau(  60) = (  0.7777781  0.2222220  0.5000000  )
        61           N   tau(  61) = (  0.7777780  0.3888880  0.5000000  )
        62           N   tau(  62) = (  0.7777780  0.5555550  0.5000000  )
        63           N   tau(  63) = (  0.7777780  0.7222219  0.5000000  )
        64           N   tau(  64) = (  0.7777780  0.8888880  0.5000000  )
        65           N   tau(  65) = (  0.9444440  0.0555550  0.5000000  )
        66           N   tau(  66) = (  0.9444440  0.2222220  0.5000000  )
        67           N   tau(  67) = (  0.9444440  0.3888880  0.5000000  )
        68           N   tau(  68) = (  0.9444440  0.5555550  0.5000000  )
        69           N   tau(  69) = (  0.9444440  0.7222219  0.5000000  )
        70           N   tau(  70) = (  0.9444440  0.8888880  0.5000000  )
        71           C   tau(  71) = (  0.5555550  0.6111110  0.5000000  )
        72           C   tau(  72) = (  0.4444440  0.5555550  0.5000000  )

     number of k points=     1
                       cart. coord. in units 2pi/alat
        k(    1) = (   0.0000000   0.0000000   0.0000000), wk =   1.0000000

                       cryst. coord.
        k(    1) = (   0.0000000   0.0000000   0.0000000), wk =   1.0000000

     Dense  grid:  1156971 G-vectors     FFT dimensions: ( 135, 135, 144)

     Estimated max dynamical RAM per process >      68.84MB

     Estimated total allocated dynamical RAM >   11014.86MB
     Generating pointlists ...
     new r_m :   0.0397 (alat units)  1.1284 (a.u.) for type    1
     new r_m :   0.0397 (alat units)  1.1284 (a.u.) for type    2
     new r_m :   0.0397 (alat units)  1.1284 (a.u.) for type    3

     Initial potential from superposition of free atoms
     Check: negative starting charge=(component1):   -0.001387
     Check: negative starting charge=(component2):   -0.001914

     starting charge  287.99093, renormalised to  288.00000

     negative rho (up, down):  1.387E-03 1.914E-03
     Starting wfc are  288 randomized atomic wfcs

     total cpu time spent up to now is        2.9 secs

     per-process dynamical memory:    91.4 Mb

     Self-consistent Calculation

     iteration #  1     ecut=    55.00 Ry     beta=0.70
     Davidson diagonalization with overlap
     ethr =  1.00E-02,  avg # of iterations =  2.5

     negative rho (up, down):  1.478E-04 3.042E-04

     total cpu time spent up to now is        4.3 secs

     total energy              =    -916.48540076 Ry
     Harris-Foulkes estimate   =    -922.74203494 Ry
     estimated scf accuracy    <      17.44764311 Ry

     total magnetization       =    -0.00 Bohr mag/cell
     absolute magnetization    =    18.25 Bohr mag/cell

     iteration #  2     ecut=    55.00 Ry     beta=0.70
     Davidson diagonalization with overlap
     ethr =  6.06E-03,  avg # of iterations =  3.0

     negative rho (up, down):  6.282E-05 1.174E-04

     total cpu time spent up to now is        5.7 secs

     total energy              =    -921.31377055 Ry
     Harris-Foulkes estimate   =    -926.04212875 Ry
     estimated scf accuracy    <      10.88384387 Ry

     total magnetization       =     0.00 Bohr mag/cell
     absolute magnetization    =    13.61 Bohr mag/cell

     iteration #  3     ecut=    55.00 Ry     beta=0.70
     Davidson diagonalization with overlap
     ethr =  3.78E-03,  avg # of iterations =  2.5

     negative rho (up, down):  1.037E-05 2.175E-05

     total cpu time spent up to now is        6.9 secs

     total energy              =    -923.46943800 Ry
     Harris-Foulkes estimate   =    -923.55952285 Ry
     estimated scf accuracy    <       0.61653117 Ry

     total magnetization       =     0.00 Bohr mag/cell
     absolute magnetization    =     8.60 Bohr mag/cell

     iteration #  4     ecut=    55.00 Ry     beta=0.70
     Davidson diagonalization with overlap
     c_bands:  1 eigenvalues not converged
     ethr =  2.14E-04,  avg # of iterations = 19.5

     negative rho (up, down):  5.018E-09 1.157E-08

     total cpu time spent up to now is       11.6 secs

     total energy              =    -923.75357526 Ry
     Harris-Foulkes estimate   =    -923.89895158 Ry
     estimated scf accuracy    <       0.62558424 Ry

     total magnetization       =    -0.00 Bohr mag/cell
     absolute magnetization    =     5.77 Bohr mag/cell

     iteration #  5     ecut=    55.00 Ry     beta=0.70
     Davidson diagonalization with overlap
     ethr =  2.14E-04,  avg # of iterations =  5.5

     negative rho (up, down):  6.564E-09 1.139E-08

     total cpu time spent up to now is       13.1 secs

     total energy              =    -923.88083657 Ry
     Harris-Foulkes estimate   =    -923.88262826 Ry
     estimated scf accuracy    <       0.03530463 Ry

     total magnetization       =     0.00 Bohr mag/cell
     absolute magnetization    =     3.74 Bohr mag/cell

     iteration #  6     ecut=    55.00 Ry     beta=0.70
     Davidson diagonalization with overlap
     ethr =  1.23E-05,  avg # of iterations =  7.5

     total cpu time spent up to now is       15.1 secs

     total energy              =    -923.90300445 Ry
     Harris-Foulkes estimate   =    -923.89137565 Ry
     estimated scf accuracy    <       0.00697180 Ry

     total magnetization       =     0.00 Bohr mag/cell
     absolute magnetization    =     2.72 Bohr mag/cell

     iteration #  7     ecut=    55.00 Ry     beta=0.70
     Davidson diagonalization with overlap
     ethr =  2.42E-06,  avg # of iterations =  3.5

     total cpu time spent up to now is       17.0 secs

     total energy              =    -923.91151387 Ry
     Harris-Foulkes estimate   =    -923.91079073 Ry
     estimated scf accuracy    <       0.00440656 Ry

     total magnetization       =     0.00 Bohr mag/cell
     absolute magnetization    =     1.10 Bohr mag/cell

     iteration #  8     ecut=    55.00 Ry     beta=0.70
     Davidson diagonalization with overlap
     ethr =  1.53E-06,  avg # of iterations =  2.5

     total cpu time spent up to now is       18.4 secs

     total energy              =    -923.91256283 Ry
     Harris-Foulkes estimate   =    -923.91239869 Ry
     estimated scf accuracy    <       0.00092259 Ry

     total magnetization       =     0.00 Bohr mag/cell
     absolute magnetization    =     0.61 Bohr mag/cell

     iteration #  9     ecut=    55.00 Ry     beta=0.70
     Davidson diagonalization with overlap
     ethr =  3.20E-07,  avg # of iterations =  3.0

     total cpu time spent up to now is       19.9 secs

     total energy              =    -923.91316431 Ry
     Harris-Foulkes estimate   =    -923.91315943 Ry
     estimated scf accuracy    <       0.00010275 Ry

     total magnetization       =    -0.00 Bohr mag/cell
     absolute magnetization    =     0.17 Bohr mag/cell

     iteration # 10     ecut=    55.00 Ry     beta=0.70
     Davidson diagonalization with overlap
     ethr =  3.57E-08,  avg # of iterations =  3.0

     total cpu time spent up to now is       21.4 secs

     total energy              =    -923.91323057 Ry
     Harris-Foulkes estimate   =    -923.91324001 Ry
     estimated scf accuracy    <       0.00002629 Ry

     total magnetization       =    -0.00 Bohr mag/cell
     absolute magnetization    =     0.03 Bohr mag/cell

     iteration # 11     ecut=    55.00 Ry     beta=0.70
     Davidson diagonalization with overlap
     ethr =  9.13E-09,  avg # of iterations =  3.0

     total cpu time spent up to now is       22.7 secs

     total energy              =    -923.91323812 Ry
     Harris-Foulkes estimate   =    -923.91323780 Ry
     estimated scf accuracy    <       0.00000087 Ry

     total magnetization       =     0.00 Bohr mag/cell
     absolute magnetization    =     0.01 Bohr mag/cell

     iteration # 12     ecut=    55.00 Ry     beta=0.70
     Davidson diagonalization with overlap
     ethr =  3.03E-10,  avg # of iterations =  3.5

     total cpu time spent up to now is       24.2 secs

     total energy              =    -923.91323867 Ry
     Harris-Foulkes estimate   =    -923.91323857 Ry
     estimated scf accuracy    <       0.00000021 Ry

     total magnetization       =     0.00 Bohr mag/cell
     absolute magnetization    =     0.00 Bohr mag/cell

     iteration # 13     ecut=    55.00 Ry     beta=0.70
     Davidson diagonalization with overlap
     ethr =  7.23E-11,  avg # of iterations =  3.0

     total cpu time spent up to now is       25.5 secs

     total energy              =    -923.91323881 Ry
     Harris-Foulkes estimate   =    -923.91323875 Ry
     estimated scf accuracy    <       0.00000004 Ry

     total magnetization       =    -0.00 Bohr mag/cell
     absolute magnetization    =     0.00 Bohr mag/cell

     iteration # 14     ecut=    55.00 Ry     beta=0.70
     Davidson diagonalization with overlap
     ethr =  1.40E-11,  avg # of iterations =  3.5

     total cpu time spent up to now is       26.9 secs

     total energy              =    -923.91323885 Ry
     Harris-Foulkes estimate   =    -923.91323883 Ry
     estimated scf accuracy    <       0.00000002 Ry

     total magnetization       =    -0.00 Bohr mag/cell
     absolute magnetization    =     0.00 Bohr mag/cell

     iteration # 15     ecut=    55.00 Ry     beta=0.70
     Davidson diagonalization with overlap
     ethr =  6.40E-12,  avg # of iterations =  4.0
 
     Magnetic moment per site:
     atom:    1    charge:    0.8834    magn:   -0.0000    constr:    0.0000
     atom:    2    charge:    0.8834    magn:   -0.0000    constr:    0.0000
     atom:    3    charge:    0.8834    magn:   -0.0000    constr:    0.0000
     atom:    4    charge:    0.8834    magn:   -0.0000    constr:    0.0000
     atom:    5    charge:    0.8834    magn:   -0.0000    constr:    0.0000
     atom:    6    charge:    0.8834    magn:   -0.0000    constr:    0.0000
     atom:    7    charge:    0.8874    magn:   -0.0000    constr:    0.0000
     atom:    8    charge:    0.8842    magn:   -0.0000    constr:    0.0000
     atom:    9    charge:    0.8877    magn:   -0.0000    constr:    0.0000
     atom:   10    charge:    0.8842    magn:   -0.0000    constr:    0.0000
     atom:   11    charge:    0.8874    magn:   -0.0000    constr:    0.0000
     atom:   12    charge:    0.8834    magn:    0.0000    constr:    0.0000
     atom:   13    charge:    0.8835    magn:   -0.0000    constr:    0.0000
     atom:   14    charge:    0.8842    magn:   -0.0000    constr:    0.0000
     atom:   15    charge:    0.9183    magn:   -0.0000    constr:    0.0000
     atom:   16    charge:    0.9183    magn:   -0.0000    constr:    0.0000
     atom:   17    charge:    0.8842    magn:   -0.0000    constr:    0.0000
     atom:   18    charge:    0.8835    magn:   -0.0000    constr:    0.0000
     atom:   19    charge:    0.8872    magn:   -0.0000    constr:    0.0000
     atom:   20    charge:    0.8830    magn:   -0.0000    constr:    0.0000
     atom:   21    charge:    0.8883    magn:    0.0000    constr:    0.0000
     atom:   22    charge:    0.8883    magn:    0.0000    constr:    0.0000
     atom:   23    charge:    0.8830    magn:   -0.0000    constr:    0.0000
     atom:   24    charge:    0.8833    magn:    0.0000    constr:    0.0000
     atom:   25    charge:    0.8833    magn:    0.0000    constr:    0.0000
     atom:   26    charge:    0.8837    magn:   -0.0000    constr:    0.0000
     atom:   27    charge:    0.8848    magn:   -0.0000    constr:    0.0000
     atom:   28    charge:    0.8848    magn:   -0.0000    constr:    0.0000
     atom:   29    charge:    0.8837    magn:   -0.0000    constr:    0.0000
     atom:   30    charge:    0.8874    magn:   -0.0000    constr:    0.0000
     atom:   31    charge:    0.8834    magn:   -0.0000    constr:    0.0000
     atom:   32    charge:    0.8874    magn:   -0.0000    constr:    0.0000
     atom:   33    charge:    0.8831    magn:   -0.0000    constr:    0.0000
     atom:   34    charge:    0.8871    magn:   -0.0000    constr:    0.0000
     atom:   35    charge:    0.8831    magn:   -0.0000    constr:    0.0000
     atom:   36    charge:    2.8627    magn:    0.0000    constr:    0.0000
     atom:   37    charge:    2.8708    magn:    0.0000    constr:    0.0000
     atom:   38    charge:    2.8626    magn:    0.0000    constr:    0.0000
     atom:   39    charge:    2.8708    magn:    0.0000    constr:    0.0000
     atom:   40    charge:    2.8627    magn:    0.0000    constr:    0.0000
     atom:   41    charge:    2.8709    magn:    0.0000    constr:    0.0000
     atom:   42    charge:    2.8628    magn:    0.0000    constr:    0.0000
     atom:   43    charge:    2.8626    magn:    0.0000    constr:    0.0000
     atom:   44    charge:    2.8611    magn:    0.0000    constr:    0.0000
     atom:   45    charge:    2.8611    magn:    0.0000    constr:    0.0000
     atom:   46    charge:    2.8626    magn:    0.0000    constr:    0.0000
     atom:   47    charge:    2.8628    magn:    0.0000    constr:    0.0000
     atom:   48    charge:    2.8627    magn:    0.0000    constr:    0.0000
     atom:   49    charge:    2.8707    magn:    0.0000    constr:    0.0000
     atom:   50    charge:    2.8593    magn:    0.0000    constr:    0.0000
     atom:   51    charge:    2.8593    magn:    0.0000    constr:    0.0000
     atom:   52    charge:    2.8707    magn:    0.0000    constr:    0.0000
     atom:   53    charge:    2.8627    magn:    0.0000    constr:    0.0000
     atom:   54    charge:    2.8627    magn:    0.0000    constr:    0.0000
     atom:   55    charge:    2.8621    magn:    0.0000    constr:    0.0000
     atom:   56    charge:    2.8335    magn:   -0.0000    constr:    0.0000
     atom:   57    charge:    2.8335    magn:   -0.0000    constr:    0.0000
     atom:   58    charge:    2.8621    magn:    0.0000    constr:    0.0000
     atom:   59    charge:    2.8627    magn:    0.0000    constr:    0.0000
     atom:   60    charge:    2.8709    magn:    0.0000    constr:    0.0000
     atom:   61    charge:    2.8627    magn:    0.0000    constr:    0.0000
     atom:   62    charge:    2.8703    magn:    0.0000    constr:    0.0000
     atom:   63    charge:    2.8620    magn:    0.0000    constr:    0.0000
     atom:   64    charge:    2.8703    magn:    0.0000    constr:    0.0000
     atom:   65    charge:    2.8627    magn:    0.0000    constr:    0.0000
     atom:   66    charge:    2.8627    magn:    0.0000    constr:    0.0000
     atom:   67    charge:    2.8627    magn:    0.0000    constr:    0.0000
     atom:   68    charge:    2.8627    magn:    0.0000    constr:    0.0000
     atom:   69    charge:    2.8627    magn:    0.0000    constr:    0.0000
     atom:   70    charge:    2.8627    magn:    0.0000    constr:    0.0000
     atom:   71    charge:    1.6473    magn:    0.0001    constr:    0.0000
     atom:   72    charge:    1.8224    magn:   -0.0000    constr:    0.0000

     total cpu time spent up to now is       28.4 secs

     End of self-consistent calculation

 ------ SPIN UP ------------


          k = 0.0000 0.0000 0.0000 (144701 PWs)   bands (ev):

   -21.8375 -21.1493 -20.8837 -20.7958 -20.7355 -20.7036 -20.5988 -20.0821
   -20.0147 -19.7994 -19.7864 -19.7451 -19.6565 -19.4776 -19.4701 -19.3636
   -19.3127 -19.2963 -19.0896 -18.7360 -18.4825 -18.4313 -18.3818 -18.3376
   -18.3342 -18.3006 -18.2835 -18.2589 -18.2510 -18.2361 -18.2102 -18.1256
   -18.0885 -17.7311 -17.6163 -15.5659 -13.2827 -12.5508 -12.5399 -12.2283
   -12.0442 -11.8193 -11.7953 -11.7451 -11.7384 -11.6917 -11.6877 -11.6655
   -11.6364 -11.5985 -11.5671 -11.5394 -11.5203 -11.0021 -10.8142 -10.6400
   -10.6084 -10.5600 -10.4977 -10.4296 -10.4029  -9.6131  -9.4296  -9.2730
    -9.2067  -9.1841  -9.1373  -9.1312  -9.1102  -9.0348  -9.0209  -9.0068
    -8.9886  -8.9801  -8.9703  -8.9572  -8.9059  -8.8786  -8.8164  -8.6732
    -8.4626  -8.2461  -8.1955  -8.1385  -8.1025  -8.0570  -7.9981  -7.8359
    -7.8317  -7.7160  -7.6795  -7.6357  -7.6192  -7.5617  -7.5079  -7.3736
    -7.3004  -7.2744  -7.2292  -7.2290  -7.1399  -7.0556  -7.0316  -6.9977
    -6.9960  -6.9288  -6.9192  -6.8582  -6.8342  -6.8254  -6.7833  -6.7019
    -6.5489  -6.3482  -6.2928  -6.2329  -6.1910  -6.1686  -6.0251  -6.0196
    -5.9345  -5.9205  -5.8820  -5.7973  -5.4536  -5.0146  -4.9801  -4.9307
    -4.8046  -4.7748  -4.7334  -4.7223  -4.7001  -4.6950  -4.6772  -4.6427
    -4.6409  -4.6306  -4.5704  -4.5047  -4.4462  -4.0011  -3.6415  -3.2375
     0.0992   1.0290   1.0680   1.1164   1.1833   1.1957   1.4446   1.7379
     1.7876   1.7953   1.8186   1.8351   1.8751   1.8799   1.9011   1.9129
     1.9176   1.9392   1.9418   1.9741   1.9937   1.9972   2.0676   2.0751

     occupation numbers 
     1.0000   1.0000   1.0000   1.0000   1.0000   1.0000   1.0000   1.0000
     1.0000   1.0000   1.0000   1.0000   1.0000   1.0000   1.0000   1.0000
     1.0000   1.0000   1.0000   1.0000   1.0000   1.0000   1.0000   1.0000
     1.0000   1.0000   1.0000   1.0000   1.0000   1.0000   1.0000   1.0000
     1.0000   1.0000   1.0000   1.0000   1.0000   1.0000   1.0000   1.0000
     1.0000   1.0000   1.0000   1.0000   1.0000   1.0000   1.0000   1.0000
     1.0000   1.0000   1.0000   1.0000   1.0000   1.0000   1.0000   1.0000
     1.0000   1.0000   1.0000   1.0000   1.0000   1.0000   1.0000   1.0000
     1.0000   1.0000   1.0000   1.0000   1.0000   1.0000   1.0000   1.0000
     1.0000   1.0000   1.0000   1.0000   1.0000   1.0000   1.0000   1.0000
     1.0000   1.0000   1.0000   1.0000   1.0000   1.0000   1.0000   1.0000
     1.0000   1.0000   1.0000   1.0000   1.0000   1.0000   1.0000   1.0000
     1.0000   1.0000   1.0000   1.0000   1.0000   1.0000   1.0000   1.0000
     1.0000   1.0000   1.0000   1.0000   1.0000   1.0000   1.0000   1.0000
     1.0000   1.0000   1.0000   1.0000   1.0000   1.0000   1.0000   1.0000
     1.0000   1.0000   1.0000   1.0000   1.0000   1.0000   1.0000   1.0000
     1.0000   1.0000   1.0000   1.0000   1.0000   1.0000   1.0000   1.0000
     1.0000   1.0000   1.0000   1.0000   1.0000   1.0000   1.0000   1.0000
     0.0000   0.0000   0.0000   0.0000   0.0000   0.0000   0.0000   0.0000
     0.0000   0.0000   0.0000   0.0000   0.0000   0.0000   0.0000   0.0000
     0.0000   0.0000   0.0000   0.0000   0.0000   0.0000   0.0000   0.0000

 ------ SPIN DOWN ----------


          k = 0.0000 0.0000 0.0000 (144701 PWs)   bands (ev):

   -21.8375 -21.1493 -20.8837 -20.7958 -20.7355 -20.7036 -20.5988 -20.0820
   -20.0147 -19.7994 -19.7864 -19.7451 -19.6565 -19.4776 -19.4701 -19.3636
   -19.3127 -19.2963 -19.0896 -18.7360 -18.4825 -18.4313 -18.3818 -18.3376
   -18.3342 -18.3006 -18.2835 -18.2589 -18.2510 -18.2361 -18.2102 -18.1256
   -18.0885 -17.7311 -17.6163 -15.5659 -13.2826 -12.5508 -12.5399 -12.2283
   -12.0442 -11.8193 -11.7953 -11.7451 -11.7384 -11.6917 -11.6877 -11.6655
   -11.6365 -11.5986 -11.5671 -11.5394 -11.5203 -11.0021 -10.8142 -10.6400
   -10.6084 -10.5600 -10.4977 -10.4297 -10.4029  -9.6131  -9.4296  -9.2730
    -9.2067  -9.1841  -9.1373  -9.1312  -9.1102  -9.0348  -9.0209  -9.0068
    -8.9886  -8.9801  -8.9702  -8.9572  -8.9059  -8.8786  -8.8164  -8.6733
    -8.4625  -8.2461  -8.1955  -8.1385  -8.1025  -8.0570  -7.9981  -7.8359
    -7.8317  -7.7160  -7.6795  -7.6357  -7.6192  -7.5617  -7.5079  -7.3736
    -7.3004  -7.2744  -7.2292  -7.2290  -7.1399  -7.0555  -7.0316  -6.9977
    -6.9960  -6.9288  -6.9192  -6.8582  -6.8342  -6.8254  -6.7833  -6.7019
    -6.5489  -6.3481  -6.2928  -6.2329  -6.1910  -6.1686  -6.0251  -6.0196
    -5.9345  -5.9205  -5.8820  -5.7973  -5.4536  -5.0146  -4.9801  -4.9307
    -4.8046  -4.7748  -4.7334  -4.7223  -4.7001  -4.6950  -4.6772  -4.6427
    -4.6409  -4.6306  -4.5704  -4.5047  -4.4461  -4.0011  -3.6415  -3.2376
     0.0997   1.0290   1.0680   1.1164   1.1832   1.1957   1.4447   1.7379
     1.7876   1.7953   1.8186   1.8351   1.8751   1.8799   1.9010   1.9129
     1.9176   1.9390   1.9418   1.9736   1.9937   1.9972   2.0670   2.0676

     occupation numbers 
     1.0000   1.0000   1.0000   1.0000   1.0000   1.0000   1.0000   1.0000
     1.0000   1.0000   1.0000   1.0000   1.0000   1.0000   1.0000   1.0000
     1.0000   1.0000   1.0000   1.0000   1.0000   1.0000   1.0000   1.0000
     1.0000   1.0000   1.0000   1.0000   1.0000   1.0000   1.0000   1.0000
     1.0000   1.0000   1.0000   1.0000   1.0000   1.0000   1.0000   1.0000
     1.0000   1.0000   1.0000   1.0000   1.0000   1.0000   1.0000   1.0000
     1.0000   1.0000   1.0000   1.0000   1.0000   1.0000   1.0000   1.0000
     1.0000   1.0000   1.0000   1.0000   1.0000   1.0000   1.0000   1.0000
     1.0000   1.0000   1.0000   1.0000   1.0000   1.0000   1.0000   1.0000
     1.0000   1.0000   1.0000   1.0000   1.0000   1.0000   1.0000   1.0000
     1.0000   1.0000   1.0000   1.0000   1.0000   1.0000   1.0000   1.0000
     1.0000   1.0000   1.0000   1.0000   1.0000   1.0000   1.0000   1.0000
     1.0000   1.0000   1.0000   1.0000   1.0000   1.0000   1.0000   1.0000
     1.0000   1.0000   1.0000   1.0000   1.0000   1.0000   1.0000   1.0000
     1.0000   1.0000   1.0000   1.0000   1.0000   1.0000   1.0000   1.0000
     1.0000   1.0000   1.0000   1.0000   1.0000   1.0000   1.0000   1.0000
     1.0000   1.0000   1.0000   1.0000   1.0000   1.0000   1.0000   1.0000
     1.0000   1.0000   1.0000   1.0000   1.0000   1.0000   1.0000   1.0000
     0.0000   0.0000   0.0000   0.0000   0.0000   0.0000   0.0000   0.0000
     0.0000   0.0000   0.0000   0.0000   0.0000   0.0000   0.0000   0.0000
     0.0000   0.0000   0.0000   0.0000   0.0000   0.0000   0.0000   0.0000

     highest occupied, lowest unoccupied level (ev):    -3.2375    0.0992

!    total energy              =    -923.91323887 Ry
     Harris-Foulkes estimate   =    -923.91323887 Ry
     estimated scf accuracy    <          2.6E-09 Ry

     The total energy is the sum of the following terms:

     one-electron contribution =   -6003.57172230 Ry
     hartree contribution      =    3059.98666817 Ry
     xc contribution           =    -264.84529709 Ry
     ewald contribution        =    2284.51711235 Ry

     total magnetization       =     0.00 Bohr mag/cell
     absolute magnetization    =     0.00 Bohr mag/cell

     convergence has been achieved in  15 iterations

     Forces acting on atoms (cartesian axes, Ry/au):

     atom    1 type  1   force =     0.00138524    0.00480690    0.00000000
     atom    2 type  1   force =     0.00260845    0.00368265    0.00000000
     atom    3 type  1   force =     0.00451593    0.00039119    0.00000000
     atom    4 type  1   force =     0.00486606   -0.00122244    0.00000000
     atom    5 type  1   force =     0.00435922    0.00109935    0.00000000
     atom    6 type  1   force =     0.00315527    0.00319921    0.00000000
     atom    7 type  1   force =     0.00073921    0.00342835    0.00000000
     atom    8 type  1   force =    -0.00183263    0.01063446    0.00000000
     atom    9 type  1   force =     0.00769641    0.00443279    0.00000000
     atom   10 type  1   force =     0.00831591   -0.00693165    0.00000000
     atom   11 type  1   force =     0.00335121   -0.00110879    0.00000000
     atom   12 type  1   force =     0.00176770    0.00101138    0.00000000
     atom   13 type  1   force =    -0.00009460    0.00007742    0.00000000
     atom   14 type  1   force =     0.00084367    0.00155036    0.00000000
     atom   15 type  1   force =     0.00931637   -0.06964239    0.00000000
     atom   16 type  1   force =    -0.05563613    0.04286459    0.00000000
     atom   17 type  1   force =     0.00179171   -0.00009180    0.00000000
     atom   18 type  1   force =     0.00003251   -0.00013925    0.00000000
     atom   19 type  1   force =    -0.00134094   -0.00078633    0.00000000
     atom   20 type  1   force =    -0.00339774   -0.00427392    0.00000000
     atom   21 type  1   force =    -0.02607963   -0.02889305    0.00000000
     atom   22 type  1   force =    -0.03805027   -0.00817326    0.00000000
     atom   23 type  1   force =    -0.00537745   -0.00082973    0.00000000
     atom   24 type  1   force =    -0.00128346    0.00102947    0.00000000
     atom   25 type  1   force =     0.00026357   -0.00166037    0.00000000
     atom   26 type  1   force =     0.00317082   -0.00674053    0.00000000
     atom   27 type  1   force =     0.01494741    0.01267118    0.00000000
     atom   28 type  1   force =     0.01846208    0.00657346    0.00000000
     atom   29 type  1   force =    -0.00424215    0.00610069    0.00000000
     atom   30 type  1   force =     0.00046990    0.00337237    0.00000000
     atom   31 type  1   force =     0.00148007    0.00082379    0.00000000
     atom   32 type  1   force =     0.00316757   -0.00129900    0.00000000
     atom   33 type  1   force =     0.00595490    0.00161550    0.00000000
     atom   34 type  1   force =     0.00722436    0.00413870    0.00000000
     atom   35 type  1   force =     0.00438895    0.00433131    0.00000000
     atom   36 type  2   force =    -0.00114414   -0.00350255    0.00000000
     atom   37 type  2   force =    -0.00265605   -0.00634529    0.00000000
     atom   38 type  2   force =    -0.00572448   -0.00327512    0.00000000
     atom   39 type  2   force =    -0.00683229    0.00088893    0.00000000
     atom   40 type  2   force =    -0.00361571    0.00077881    0.00000000
     atom   41 type  2   force =    -0.00220839   -0.00124585    0.00000000
     atom   42 type  2   force =     0.00026642   -0.00116438    0.00000000
     atom   43 type  2   force =     0.00233053   -0.00383423    0.00000000
     atom   44 type  2   force =    -0.00695126   -0.02024243    0.00000000
     atom   45 type  2   force =    -0.02103223    0.00413208    0.00000000
     atom   46 type  2   force =    -0.00216589    0.00395562    0.00000000
     atom   47 type  2   force =    -0.00089016    0.00084882    0.00000000
     atom   48 type  2   force =     0.00074304    0.00044063    0.00000000
     atom   49 type  2   force =     0.00323808   -0.00077362    0.00000000
     atom   50 type  2   force =     0.01931523   -0.01190424    0.00000000
     atom   51 type  2   force =    -0.00067535    0.02270848    0.00000000
     atom   52 type  2   force =     0.00093788    0.00322246    0.00000000
     atom   53 type  2   force =     0.00180508   -0.00045202    0.00000000
     atom   54 type  2   force =     0.00050144    0.00180415    0.00000000
     atom   55 type  2   force =     0.00249986    0.01301490    0.00000000
     atom   56 type  2   force =    -0.05715613    0.06933569    0.00000000
     atom   57 type  2   force =     0.03145641   -0.08415284    0.00000000
     atom   58 type  2   force =     0.01249573   -0.00430049    0.00000000
     atom   59 type  2   force =     0.00049913   -0.00342023    0.00000000
     atom   60 type  2   force =    -0.00102863   -0.00058023    0.00000000
     atom   61 type  2   force =    -0.00272785    0.00218164    0.00000000
     atom   62 type  2   force =    -0.01277308    0.00047735    0.00000000
     atom   63 type  2   force =    -0.01029300   -0.00592651    0.00000000
     atom   64 type  2   force =    -0.00598919   -0.01126249    0.00000000
     atom   65 type  2   force =    -0.00217869   -0.00513933    0.00000000
     atom   66 type  2   force =    -0.00228510   -0.00318073    0.00000000
     atom   67 type  2   force =    -0.00390661   -0.00035613    0.00000000
     atom   68 type  2   force =    -0.00554959    0.00069908    0.00000000
     atom   69 type  2   force =    -0.00539902   -0.00128776    0.00000000
     atom   70 type  2   force =    -0.00382675   -0.00399939    0.00000000
     atom   71 type  3   force =    -0.04950816   -0.02859409    0.00000000
     atom   72 type  3   force =     0.16348940    0.09440868    0.00000000
     The non-local contrib.  to forces
     atom    1 type  1   force =    -0.00161804   -0.00457271    0.00000000
     atom    2 type  1   force =    -0.00215437   -0.00315176    0.00000000
     atom    3 type  1   force =    -0.00378990   -0.00031238    0.00000000
     atom    4 type  1   force =    -0.00475895    0.00086720    0.00000000
     atom    5 type  1   force =    -0.00364142   -0.00114292    0.00000000
     atom    6 type  1   force =    -0.00279351   -0.00260472    0.00000000
     atom    7 type  1   force =    -0.00053331   -0.00312154    0.00000000
     atom    8 type  1   force =     0.00015150   -0.01285690    0.00000000
     atom    9 type  1   force =    -0.00866817   -0.00501374    0.00000000
     atom   10 type  1   force =    -0.01104168    0.00653864    0.00000000
     atom   11 type  1   force =    -0.00295989    0.00107314    0.00000000
     atom   12 type  1   force =    -0.00142150   -0.00082891    0.00000000
     atom   13 type  1   force =     0.00046557   -0.00085393    0.00000000
     atom   14 type  1   force =     0.00216892   -0.00891453    0.00000000
     atom   15 type  1   force =     0.00593435   -0.21585589    0.00000000
     atom   16 type  1   force =    -0.18395487    0.11304766    0.00000000
     atom   17 type  1   force =    -0.00661580    0.00630182    0.00000000
     atom   18 type  1   force =    -0.00049671    0.00081318    0.00000000
     atom   19 type  1   force =     0.00136182    0.00077489    0.00000000
     atom   20 type  1   force =     0.00133806    0.00718032    0.00000000
     atom   21 type  1   force =     0.00883932    0.03717601    0.00000000
     atom   22 type  1   force =     0.03662576   -0.01095935    0.00000000
     atom   23 type  1   force =     0.00690458   -0.00245246    0.00000000
     atom   24 type  1   force =     0.00092578   -0.00095743    0.00000000
     atom   25 type  1   force =    -0.00035506    0.00125405    0.00000000
     atom   26 type  1   force =    -0.00205915    0.00443862    0.00000000
     atom   27 type  1   force =    -0.01935288   -0.00648086    0.00000000
     atom   28 type  1   force =    -0.01527822   -0.01354729    0.00000000
     atom   29 type  1   force =     0.00282290   -0.00401666    0.00000000
     atom   30 type  1   force =    -0.00053246   -0.00252429    0.00000000
     atom   31 type  1   force =    -0.00120913   -0.00072095    0.00000000
     atom   32 type  1   force =    -0.00244268    0.00078353    0.00000000
     atom   33 type  1   force =    -0.00718986   -0.00150057    0.00000000
     atom   34 type  1   force =    -0.00779286   -0.00452274    0.00000000
     atom   35 type  1   force =    -0.00488483   -0.00549322    0.00000000
     atom   36 type  2   force =    -0.00288698   -0.00907415    0.00000000
     atom   37 type  2   force =    -0.00917170   -0.01724898    0.00000000
     atom   38 type  2   force =    -0.01866908   -0.01075715    0.00000000
     atom   39 type  2   force =    -0.01952760    0.00068464    0.00000000
     atom   40 type  2   force =    -0.00930388    0.00204438    0.00000000
     atom   41 type  2   force =    -0.00571686   -0.00328065    0.00000000
     atom   42 type  2   force =     0.00133799   -0.00327919    0.00000000
     atom   43 type  2   force =     0.00725017   -0.01279209    0.00000000
     atom   44 type  2   force =    -0.03682839   -0.05750945    0.00000000
     atom   45 type  2   force =    -0.06823882   -0.00311402    0.00000000
     atom   46 type  2   force =    -0.00745899    0.01268792    0.00000000
     atom   47 type  2   force =    -0.00218634    0.00282474    0.00000000
     atom   48 type  2   force =     0.00275341    0.00159225    0.00000000
     atom   49 type  2   force =     0.01281337   -0.00410034    0.00000000
     atom   50 type  2   force =     0.08658099   -0.04191848    0.00000000
     atom   51 type  2   force =     0.00697950    0.09595655    0.00000000
     atom   52 type  2   force =     0.00284879    0.01315767    0.00000000
     atom   53 type  2   force =     0.00404747   -0.00267418    0.00000000
     atom   54 type  2   force =    -0.00029344    0.00484626    0.00000000
     atom   55 type  2   force =    -0.01000893    0.03676304    0.00000000
     atom   56 type  2   force =    -0.33924584    0.27455639    0.00000000
     atom   57 type  2   force =     0.06814962   -0.43107832    0.00000000
     atom   58 type  2   force =     0.02681585   -0.02702162    0.00000000
     atom   59 type  2   force =     0.00041793   -0.01027477    0.00000000
     atom   60 type  2   force =    -0.00337965   -0.00194339    0.00000000
     atom   61 type  2   force =    -0.00870500    0.00552963    0.00000000
     atom   62 type  2   force =    -0.04085448    0.01065748    0.00000000
     atom   63 type  2   force =    -0.03639049   -0.02099861    0.00000000
     atom   64 type  2   force =    -0.01121344   -0.04068109    0.00000000
     atom   65 type  2   force =    -0.00565704   -0.01486253    0.00000000
     atom   66 type  2   force =    -0.00708703   -0.00825306    0.00000000
     atom   67 type  2   force =    -0.01069612   -0.00199832    0.00000000
     atom   68 type  2   force =    -0.01570178    0.00253407    0.00000000
     atom   69 type  2   force =    -0.01476677   -0.00298212    0.00000000
     atom   70 type  2   force =    -0.00997485   -0.01128528    0.00000000
     atom   71 type  3   force =     0.45334696    0.26172809    0.00000000
     atom   72 type  3   force =     0.47325081    0.27324603    0.00000000
     The ionic contribution  to forces
     atom    1 type  1   force =     0.00748330    0.01991361    0.00000000
     atom    2 type  1   force =     0.01882833    0.02117105   -0.00000000
     atom    3 type  1   force =     0.02787093    0.00564295   -0.00000000
     atom    4 type  1   force =     0.02103081   -0.00355430   -0.00000000
     atom    5 type  1   force =     0.01657421    0.00260142   -0.00000000
     atom    6 type  1   force =     0.01066240    0.01297611   -0.00000000
     atom    7 type  1   force =    -0.00147132    0.01543061    0.00000000
     atom    8 type  1   force =     0.00803444    0.05323161    0.00000000
     atom    9 type  1   force =     0.10012393    0.05779314    0.00000000
     atom   10 type  1   force =     0.05024095   -0.01976720   -0.00000000
     atom   11 type  1   force =     0.01266117   -0.00915135   -0.00000000
     atom   12 type  1   force =     0.00444570    0.00255772    0.00000000
     atom   13 type  1   force =    -0.00584183    0.00172654    0.00000000
     atom   14 type  1   force =    -0.03373921    0.02104905    0.00000000
     atom   15 type  1   force =    -0.13010123    0.57244334   -0.00000000
     atom   16 type  1   force =     0.43068922   -0.39893261    0.00000000
     atom   17 type  1   force =     0.00146709   -0.03992526   -0.00000000
     atom   18 type  1   force =    -0.00139189   -0.00594171   -0.00000000
     atom   19 type  1   force =    -0.00380674   -0.00224619    0.00000000
     atom   20 type  1   force =    -0.00800276   -0.01312596    0.00000000
     atom   21 type  1   force =    -0.03649312   -0.12925699    0.00000000
     atom   22 type  1   force =    -0.13018037    0.03288334   -0.00000000
     atom   23 type  1   force =    -0.01524485   -0.00043576    0.00000000
     atom   24 type  1   force =    -0.00147111    0.00625104    0.00000000
     atom   25 type  1   force =     0.00471815   -0.00456852   -0.00000000
     atom   26 type  1   force =     0.02229042   -0.02501892   -0.00000000
     atom   27 type  1   force =     0.15860452   -0.01977071    0.00000000
     atom   28 type  1   force =     0.06222336    0.14707111    0.00000000
     atom   29 type  1   force =    -0.01050620    0.03179178   -0.00000000
     atom   30 type  1   force =     0.00544737    0.01604168    0.00000000
     atom   31 type  1   force =     0.01045041    0.00591019   -0.00000000
     atom   32 type  1   force =     0.01664709   -0.00332290   -0.00000000
     atom   33 type  1   force =     0.03074266   -0.00350130    0.00000000
     atom   34 type  1   force =     0.03755829    0.02156091   -0.00000000
     atom   35 type  1   force =     0.01237195    0.02835783   -0.00000000
     atom   36 type  2   force =     0.00885072    0.02671145   -0.00000000
     atom   37 type  2   force =     0.02039478    0.04711514    0.00000000
     atom   38 type  2   force =     0.06238298    0.03617750   -0.00000000
     atom   39 type  2   force =     0.05100908   -0.00585446   -0.00000000
     atom   40 type  2   force =     0.02751638   -0.00566772    0.00000000
     atom   41 type  2   force =     0.01720226    0.01008853   -0.00000000
     atom   42 type  2   force =    -0.00260591    0.01045145   -0.00000000
     atom   43 type  2   force =    -0.01766334    0.05289376   -0.00000000
     atom   44 type  2   force =     0.10356438    0.24542130   -0.00000000
     atom   45 type  2   force =     0.26418880   -0.03291419   -0.00000000
     atom   46 type  2   force =     0.03699425   -0.04177243    0.00000000
     atom   47 type  2   force =     0.00772587   -0.00731595    0.00000000
     atom   48 type  2   force =    -0.00641660   -0.00365899    0.00000000
     atom   49 type  2   force =    -0.02547644   -0.00076744    0.00000000
     atom   50 type  2   force =    -0.21701659    0.05515719    0.00000000
     atom   51 type  2   force =    -0.06089225   -0.21545009   -0.00000000
     atom   52 type  2   force =    -0.01338240   -0.02152904    0.00000000
     atom   53 type  2   force =    -0.00996072    0.00285970   -0.00000000
     atom   54 type  2   force =    -0.00254346   -0.01004888    0.00000000
     atom   55 type  2   force =     0.00224084   -0.06629555    0.00000000
     atom   56 type  2   force =     0.71758963   -0.66490273    0.00000000
     atom   57 type  2   force =    -0.21706268    0.95394487    0.00000000
     atom   58 type  2   force =    -0.05643062    0.03532479   -0.00000000
     atom   59 type  2   force =    -0.00261254    0.02574544   -0.00000000
     atom   60 type  2   force =     0.00724359    0.00416489    0.00000000
     atom   61 type  2   force =     0.02096497   -0.01495786   -0.00000000
     atom   62 type  2   force =     0.08357491   -0.03291185   -0.00000000
     atom   63 type  2   force =     0.16670825    0.09624202    0.00000000
     atom   64 type  2   force =     0.01325964    0.08900932    0.00000000
     atom   65 type  2   force =     0.01240520    0.03327764    0.00000000
     atom   66 type  2   force =     0.01770322    0.02159572   -0.00000000
     atom   67 type  2   force =     0.02758027    0.00469076    0.00000000
     atom   68 type  2   force =     0.03498571   -0.00582959   -0.00000000
     atom   69 type  2   force =     0.04638491    0.00939007    0.00000000
     atom   70 type  2   force =     0.03134257    0.03563461   -0.00000000
     atom   71 type  3   force =    -0.92130452   -0.53198855    0.00000000
     atom   72 type  3   force =    -0.92136123   -0.53191617   -0.00000000
     The local contribution  to forces
     atom    1 type  1   force =    -0.00446700   -0.01052811    0.00000000
     atom    2 type  1   force =    -0.01405479   -0.01433109    0.00000000
     atom    3 type  1   force =    -0.01955502   -0.00493272    0.00000000
     atom    4 type  1   force =    -0.01139419    0.00147324    0.00000000
     atom    5 type  1   force =    -0.00856092   -0.00035151    0.00000000
     atom    6 type  1   force =    -0.00470077   -0.00716498    0.00000000
     atom    7 type  1   force =     0.00275755   -0.00887481    0.00000000
     atom    8 type  1   force =    -0.01000510   -0.02973978    0.00000000
     atom    9 type  1   force =    -0.08375165   -0.04834200    0.00000000
     atom   10 type  1   force =    -0.03087616    0.00630847    0.00000000
     atom   11 type  1   force =    -0.00633826    0.00697834    0.00000000
     atom   12 type  1   force =    -0.00124307   -0.00070949    0.00000000
     atom   13 type  1   force =     0.00529593   -0.00078760    0.00000000
     atom   14 type  1   force =     0.03243259   -0.01057828    0.00000000
     atom   15 type  1   force =     0.13351015   -0.42621027    0.00000000
     atom   16 type  1   force =    -0.30234011    0.32876357    0.00000000
     atom   17 type  1   force =     0.00695509    0.03354490    0.00000000
     atom   18 type  1   force =     0.00193489    0.00499801    0.00000000
     atom   19 type  1   force =     0.00111719    0.00069264    0.00000000
     atom   20 type  1   force =     0.00328136    0.00168569    0.00000000
     atom   21 type  1   force =     0.00159382    0.06320862    0.00000000
     atom   22 type  1   force =     0.05553217   -0.03009068    0.00000000
     atom   23 type  1   force =     0.00298210    0.00206394    0.00000000
     atom   24 type  1   force =    -0.00072137   -0.00425861    0.00000000
     atom   25 type  1   force =    -0.00408636    0.00166590    0.00000000
     atom   26 type  1   force =    -0.01705237    0.01385070    0.00000000
     atom   27 type  1   force =    -0.12429977    0.03893454    0.00000000
     atom   28 type  1   force =    -0.02847117   -0.12695220    0.00000000
     atom   29 type  1   force =     0.00345456   -0.02167296    0.00000000
     atom   30 type  1   force =    -0.00443246   -0.01013946    0.00000000
     atom   31 type  1   force =    -0.00774770   -0.00435752    0.00000000
     atom   32 type  1   force =    -0.01102570    0.00124854    0.00000000
     atom   33 type  1   force =    -0.01759035    0.00662616    0.00000000
     atom   34 type  1   force =    -0.02253592   -0.01289635    0.00000000
     atom   35 type  1   force =    -0.00308697   -0.01853104    0.00000000
     atom   36 type  2   force =    -0.00709146   -0.02113685    0.00000000
     atom   37 type  2   force =    -0.01386922   -0.03620788    0.00000000
     atom   38 type  2   force =    -0.04943806   -0.02869509    0.00000000
     atom   39 type  2   force =    -0.03830568    0.00606568    0.00000000
     atom   40 type  2   force =    -0.02181748    0.00441503    0.00000000
     atom   41 type  2   force =    -0.01368485   -0.00804850    0.00000000
     atom   42 type  2   force =     0.00154774   -0.00832694    0.00000000
     atom   43 type  2   force =     0.01275848   -0.04393622    0.00000000
     atom   44 type  2   force =    -0.07367105   -0.20815617    0.00000000
     atom   45 type  2   force =    -0.21697576    0.04017580    0.00000000
     atom   46 type  2   force =    -0.03169374    0.03305312    0.00000000
     atom   47 type  2   force =    -0.00641467    0.00534694    0.00000000
     atom   48 type  2   force =     0.00441630    0.00251321    0.00000000
     atom   49 type  2   force =     0.01592132    0.00410592    0.00000000
     atom   50 type  2   force =     0.14978794   -0.02511837    0.00000000
     atom   51 type  2   force =     0.05327764    0.14222204    0.00000000
     atom   52 type  2   force =     0.01149207    0.01160532    0.00000000
     atom   53 type  2   force =     0.00773879   -0.00063796    0.00000000
     atom   54 type  2   force =     0.00334828    0.00702467    0.00000000
     atom   55 type  2   force =     0.01028223    0.04256957    0.00000000
     atom   56 type  2   force =    -0.43549509    0.45971168    0.00000000
     atom   57 type  2   force =     0.18039701   -0.60702930    0.00000000
     atom   58 type  2   force =     0.04213685   -0.01260283    0.00000000
     atom   59 type  2   force =     0.00270866   -0.01889137    0.00000000
     atom   60 type  2   force =    -0.00487584   -0.00279199    0.00000000
     atom   61 type  2   force =    -0.01498069    0.01162309    0.00000000
     atom   62 type  2   force =    -0.05549955    0.02274540    0.00000000
     atom   63 type  2   force =    -0.14061704   -0.08117298    0.00000000
     atom   64 type  2   force =    -0.00802699   -0.05960309    0.00000000
     atom   65 type  2   force =    -0.00891755   -0.02355212    0.00000000
     atom   66 type  2   force =    -0.01288948   -0.01651756    0.00000000
     atom   67 type  2   force =    -0.02077979   -0.00304117    0.00000000
     atom   68 type  2   force =    -0.02482677    0.00400167    0.00000000
     atom   69 type  2   force =    -0.03701587   -0.00769176    0.00000000
     atom   70 type  2   force =    -0.02519071   -0.02834944    0.00000000
     atom   71 type  3   force =     0.41847123    0.24167999    0.00000000
     atom   72 type  3   force =     0.61165288    0.35311008    0.00000000
     The core correction contribution to forces
     atom    1 type  1   force =     0.00000000    0.00000000    0.00000000
     atom    2 type  1   force =     0.00000000    0.00000000    0.00000000
     atom    3 type  1   force =     0.00000000    0.00000000    0.00000000
     atom    4 type  1   force =     0.00000000    0.00000000    0.00000000
     atom    5 type  1   force =     0.00000000    0.00000000    0.00000000
     atom    6 type  1   force =     0.00000000    0.00000000    0.00000000
     atom    7 type  1   force =     0.00000000    0.00000000    0.00000000
     atom    8 type  1   force =     0.00000000    0.00000000    0.00000000
     atom    9 type  1   force =     0.00000000    0.00000000    0.00000000
     atom   10 type  1   force =     0.00000000    0.00000000    0.00000000
     atom   11 type  1   force =     0.00000000    0.00000000    0.00000000
     atom   12 type  1   force =     0.00000000    0.00000000    0.00000000
     atom   13 type  1   force =     0.00000000    0.00000000    0.00000000
     atom   14 type  1   force =     0.00000000    0.00000000    0.00000000
     atom   15 type  1   force =     0.00000000    0.00000000    0.00000000
     atom   16 type  1   force =     0.00000000    0.00000000    0.00000000
     atom   17 type  1   force =     0.00000000    0.00000000    0.00000000
     atom   18 type  1   force =     0.00000000    0.00000000    0.00000000
     atom   19 type  1   force =     0.00000000    0.00000000    0.00000000
     atom   20 type  1   force =     0.00000000    0.00000000    0.00000000
     atom   21 type  1   force =     0.00000000    0.00000000    0.00000000
     atom   22 type  1   force =     0.00000000    0.00000000    0.00000000
     atom   23 type  1   force =     0.00000000    0.00000000    0.00000000
     atom   24 type  1   force =     0.00000000    0.00000000    0.00000000
     atom   25 type  1   force =     0.00000000    0.00000000    0.00000000
     atom   26 type  1   force =     0.00000000    0.00000000    0.00000000
     atom   27 type  1   force =     0.00000000    0.00000000    0.00000000
     atom   28 type  1   force =     0.00000000    0.00000000    0.00000000
     atom   29 type  1   force =     0.00000000    0.00000000    0.00000000
     atom   30 type  1   force =     0.00000000    0.00000000    0.00000000
     atom   31 type  1   force =     0.00000000    0.00000000    0.00000000
     atom   32 type  1   force =     0.00000000    0.00000000    0.00000000
     atom   33 type  1   force =     0.00000000    0.00000000    0.00000000
     atom   34 type  1   force =     0.00000000    0.00000000    0.00000000
     atom   35 type  1   force =     0.00000000    0.00000000    0.00000000
     atom   36 type  2   force =     0.00000000    0.00000000    0.00000000
     atom   37 type  2   force =     0.00000000    0.00000000    0.00000000
     atom   38 type  2   force =     0.00000000    0.00000000    0.00000000
     atom   39 type  2   force =     0.00000000    0.00000000    0.00000000
     atom   40 type  2   force =     0.00000000    0.00000000    0.00000000
     atom   41 type  2   force =     0.00000000    0.00000000    0.00000000
     atom   42 type  2   force =     0.00000000    0.00000000    0.00000000
     atom   43 type  2   force =     0.00000000    0.00000000    0.00000000
     atom   44 type  2   force =     0.00000000    0.00000000    0.00000000
     atom   45 type  2   force =     0.00000000    0.00000000    0.00000000
     atom   46 type  2   force =     0.00000000    0.00000000    0.00000000
     atom   47 type  2   force =     0.00000000    0.00000000    0.00000000
     atom   48 type  2   force =     0.00000000    0.00000000    0.00000000
     atom   49 type  2   force =     0.00000000    0.00000000    0.00000000
     atom   50 type  2   force =     0.00000000    0.00000000    0.00000000
     atom   51 type  2   force =     0.00000000    0.00000000    0.00000000
     atom   52 type  2   force =     0.00000000    0.00000000    0.00000000
     atom   53 type  2   force =     0.00000000    0.00000000    0.00000000
     atom   54 type  2   force =     0.00000000    0.00000000    0.00000000
     atom   55 type  2   force =     0.00000000    0.00000000    0.00000000
     atom   56 type  2   force =     0.00000000    0.00000000    0.00000000
     atom   57 type  2   force =     0.00000000    0.00000000    0.00000000
     atom   58 type  2   force =     0.00000000    0.00000000    0.00000000
     atom   59 type  2   force =     0.00000000    0.00000000    0.00000000
     atom   60 type  2   force =     0.00000000    0.00000000    0.00000000
     atom   61 type  2   force =     0.00000000    0.00000000    0.00000000
     atom   62 type  2   force =     0.00000000    0.00000000    0.00000000
     atom   63 type  2   force =     0.00000000    0.00000000    0.00000000
     atom   64 type  2   force =     0.00000000    0.00000000    0.00000000
     atom   65 type  2   force =     0.00000000    0.00000000    0.00000000
     atom   66 type  2   force =     0.00000000    0.00000000    0.00000000
     atom   67 type  2   force =     0.00000000    0.00000000    0.00000000
     atom   68 type  2   force =     0.00000000    0.00000000    0.00000000
     atom   69 type  2   force =     0.00000000    0.00000000    0.00000000
     atom   70 type  2   force =     0.00000000    0.00000000    0.00000000
     atom   71 type  3   force =     0.00000000    0.00000000    0.00000000
     atom   72 type  3   force =     0.00000000    0.00000000    0.00000000
     The Hubbard contrib.    to forces
     atom    1 type  1   force =     0.00000000    0.00000000    0.00000000
     atom    2 type  1   force =     0.00000000    0.00000000    0.00000000
     atom    3 type  1   force =     0.00000000    0.00000000    0.00000000
     atom    4 type  1   force =     0.00000000    0.00000000    0.00000000
     atom    5 type  1   force =     0.00000000    0.00000000    0.00000000
     atom    6 type  1   force =     0.00000000    0.00000000    0.00000000
     atom    7 type  1   force =     0.00000000    0.00000000    0.00000000
     atom    8 type  1   force =     0.00000000    0.00000000    0.00000000
     atom    9 type  1   force =     0.00000000    0.00000000    0.00000000
     atom   10 type  1   force =     0.00000000    0.00000000    0.00000000
     atom   11 type  1   force =     0.00000000    0.00000000    0.00000000
     atom   12 type  1   force =     0.00000000    0.00000000    0.00000000
     atom   13 type  1   force =     0.00000000    0.00000000    0.00000000
     atom   14 type  1   force =     0.00000000    0.00000000    0.00000000
     atom   15 type  1   force =     0.00000000    0.00000000    0.00000000
     atom   16 type  1   force =     0.00000000    0.00000000    0.00000000
     atom   17 type  1   force =     0.00000000    0.00000000    0.00000000
     atom   18 type  1   force =     0.00000000    0.00000000    0.00000000
     atom   19 type  1   force =     0.00000000    0.00000000    0.00000000
     atom   20 type  1   force =     0.00000000    0.00000000    0.00000000
     atom   21 type  1   force =     0.00000000    0.00000000    0.00000000
     atom   22 type  1   force =     0.00000000    0.00000000    0.00000000
     atom   23 type  1   force =     0.00000000    0.00000000    0.00000000
     atom   24 type  1   force =     0.00000000    0.00000000    0.00000000
     atom   25 type  1   force =     0.00000000    0.00000000    0.00000000
     atom   26 type  1   force =     0.00000000    0.00000000    0.00000000
     atom   27 type  1   force =     0.00000000    0.00000000    0.00000000
     atom   28 type  1   force =     0.00000000    0.00000000    0.00000000
     atom   29 type  1   force =     0.00000000    0.00000000    0.00000000
     atom   30 type  1   force =     0.00000000    0.00000000    0.00000000
     atom   31 type  1   force =     0.00000000    0.00000000    0.00000000
     atom   32 type  1   force =     0.00000000    0.00000000    0.00000000
     atom   33 type  1   force =     0.00000000    0.00000000    0.00000000
     atom   34 type  1   force =     0.00000000    0.00000000    0.00000000
     atom   35 type  1   force =     0.00000000    0.00000000    0.00000000
     atom   36 type  2   force =     0.00000000    0.00000000    0.00000000
     atom   37 type  2   force =     0.00000000    0.00000000    0.00000000
     atom   38 type  2   force =     0.00000000    0.00000000    0.00000000
     atom   39 type  2   force =     0.00000000    0.00000000    0.00000000
     atom   40 type  2   force =     0.00000000    0.00000000    0.00000000
     atom   41 type  2   force =     0.00000000    0.00000000    0.00000000
     atom   42 type  2   force =     0.00000000    0.00000000    0.00000000
     atom   43 type  2   force =     0.00000000    0.00000000    0.00000000
     atom   44 type  2   force =     0.00000000    0.00000000    0.00000000
     atom   45 type  2   force =     0.00000000    0.00000000    0.00000000
     atom   46 type  2   force =     0.00000000    0.00000000    0.00000000
     atom   47 type  2   force =     0.00000000    0.00000000    0.00000000
     atom   48 type  2   force =     0.00000000    0.00000000    0.00000000
     atom   49 type  2   force =     0.00000000    0.00000000    0.00000000
     atom   50 type  2   force =     0.00000000    0.00000000    0.00000000
     atom   51 type  2   force =     0.00000000    0.00000000    0.00000000
     atom   52 type  2   force =     0.00000000    0.00000000    0.00000000
     atom   53 type  2   force =     0.00000000    0.00000000    0.00000000
     atom   54 type  2   force =     0.00000000    0.00000000    0.00000000
     atom   55 type  2   force =     0.00000000    0.00000000    0.00000000
     atom   56 type  2   force =     0.00000000    0.00000000    0.00000000
     atom   57 type  2   force =     0.00000000    0.00000000    0.00000000
     atom   58 type  2   force =     0.00000000    0.00000000    0.00000000
     atom   59 type  2   force =     0.00000000    0.00000000    0.00000000
     atom   60 type  2   force =     0.00000000    0.00000000    0.00000000
     atom   61 type  2   force =     0.00000000    0.00000000    0.00000000
     atom   62 type  2   force =     0.00000000    0.00000000    0.00000000
     atom   63 type  2   force =     0.00000000    0.00000000    0.00000000
     atom   64 type  2   force =     0.00000000    0.00000000    0.00000000
     atom   65 type  2   force =     0.00000000    0.00000000    0.00000000
     atom   66 type  2   force =     0.00000000    0.00000000    0.00000000
     atom   67 type  2   force =     0.00000000    0.00000000    0.00000000
     atom   68 type  2   force =     0.00000000    0.00000000    0.00000000
     atom   69 type  2   force =     0.00000000    0.00000000    0.00000000
     atom   70 type  2   force =     0.00000000    0.00000000    0.00000000
     atom   71 type  3   force =     0.00000000    0.00000000    0.00000000
     atom   72 type  3   force =     0.00000000    0.00000000    0.00000000
     The SCF correction term to forces
     atom    1 type  1   force =     0.00000093    0.00000226    0.00000000
     atom    2 type  1   force =     0.00000324    0.00000260    0.00000000
     atom    3 type  1   force =     0.00000387    0.00000150    0.00000000
     atom    4 type  1   force =     0.00000235   -0.00000042    0.00000000
     atom    5 type  1   force =     0.00000132    0.00000052    0.00000000
     atom    6 type  1   force =     0.00000111    0.00000096    0.00000000
     atom    7 type  1   force =     0.00000025    0.00000226    0.00000000
     atom    8 type  1   force =     0.00000049    0.00000768    0.00000000
     atom    9 type  1   force =     0.00000627    0.00000354    0.00000000
     atom   10 type  1   force =     0.00000677   -0.00000341    0.00000000
     atom   11 type  1   force =     0.00000215   -0.00000078    0.00000000
     atom   12 type  1   force =     0.00000054    0.00000022    0.00000000
     atom   13 type  1   force =    -0.00000031    0.00000057    0.00000000
     atom   14 type  1   force =    -0.00000467    0.00000227    0.00000000
     atom   15 type  1   force =    -0.00001294   -0.00001141    0.00000000
     atom   16 type  1   force =    -0.00001640   -0.00000588    0.00000000
     atom   17 type  1   force =    -0.00000070   -0.00000510    0.00000000
     atom   18 type  1   force =     0.00000018   -0.00000057    0.00000000
     atom   19 type  1   force =     0.00000075    0.00000049    0.00000000
     atom   20 type  1   force =    -0.00000044   -0.00000581    0.00000000
     atom   21 type  1   force =    -0.00000568   -0.00001253    0.00000000
     atom   22 type  1   force =    -0.00001386    0.00000159    0.00000000
     atom   23 type  1   force =    -0.00000532    0.00000270    0.00000000
     atom   24 type  1   force =    -0.00000279    0.00000262    0.00000000
     atom   25 type  1   force =     0.00000080   -0.00000365    0.00000000
     atom   26 type  1   force =     0.00000588   -0.00000278    0.00000000
     atom   27 type  1   force =     0.00000949   -0.00000363    0.00000000
     atom   28 type  1   force =     0.00000208    0.00001000    0.00000000
     atom   29 type  1   force =     0.00000056    0.00000668    0.00000000
     atom   30 type  1   force =     0.00000142    0.00000259    0.00000000
     atom   31 type  1   force =     0.00000045    0.00000022    0.00000000
     atom   32 type  1   force =     0.00000282   -0.00000001    0.00000000
     atom   33 type  1   force =     0.00000640   -0.00000065    0.00000000
     atom   34 type  1   force =     0.00000882    0.00000503    0.00000000
     atom   35 type  1   force =     0.00000276    0.00000589    0.00000000
     atom   36 type  2   force =    -0.00000246    0.00000516   -0.00000000
     atom   37 type  2   force =     0.00000405    0.00000457    0.00000000
     atom   38 type  2   force =     0.00001364    0.00000777    0.00000000
     atom   39 type  2   force =     0.00000587    0.00000123    0.00000000
     atom   40 type  2   force =     0.00000323   -0.00000474    0.00000000
     atom   41 type  2   force =     0.00000503    0.00000293    0.00000000
     atom   42 type  2   force =     0.00000056   -0.00000155    0.00000000
     atom   43 type  2   force =    -0.00000081    0.00000848    0.00000000
     atom   44 type  2   force =    -0.00000224    0.00001005    0.00000000
     atom   45 type  2   force =     0.00000750   -0.00000736    0.00000000
     atom   46 type  2   force =     0.00000655   -0.00000483    0.00000000
     atom   47 type  2   force =    -0.00000106    0.00000124    0.00000000
     atom   48 type  2   force =     0.00000390    0.00000231    0.00000000
     atom   49 type  2   force =    -0.00000620   -0.00000360    0.00000000
     atom   50 type  2   force =    -0.00002315   -0.00001643    0.00000000
     atom   51 type  2   force =    -0.00002628   -0.00001186   -0.00000000
     atom   52 type  2   force =    -0.00000661   -0.00000333    0.00000000
     atom   53 type  2   force =    -0.00000649    0.00000857   -0.00000000
     atom   54 type  2   force =     0.00000403   -0.00000976    0.00000000
     atom   55 type  2   force =    -0.00000031   -0.00001401    0.00000000
     atom   56 type  2   force =     0.00000913   -0.00002149    0.00000000
     atom   57 type  2   force =    -0.00001357    0.00001806    0.00000000
     atom   58 type  2   force =    -0.00001239    0.00000732    0.00000000
     atom   59 type  2   force =    -0.00000097    0.00000863    0.00000000
     atom   60 type  2   force =    -0.00000277   -0.00000157    0.00000000
     atom   61 type  2   force =     0.00000682   -0.00000506    0.00000000
     atom   62 type  2   force =     0.00002001   -0.00000552   -0.00000000
     atom   63 type  2   force =     0.00002025    0.00001122    0.00000000
     atom   64 type  2   force =     0.00000557    0.00002053    0.00000000
     atom   65 type  2   force =     0.00000466    0.00000584    0.00000000
     atom   66 type  2   force =     0.00000215    0.00000232    0.00000000
     atom   67 type  2   force =     0.00000300    0.00000076    0.00000000
     atom   68 type  2   force =     0.00000722    0.00000109    0.00000000
     atom   69 type  2   force =     0.00001267    0.00000421    0.00000000
     atom   70 type  2   force =     0.00001020    0.00000888    0.00000000
     atom   71 type  3   force =    -0.00000787   -0.00000547    0.00000000
     atom   72 type  3   force =    -0.00003910   -0.00002311    0.00000000

     Total force =     0.269710     Total SCF correction =     0.000102

     BFGS Geometry Optimization

     number of scf cycles    =   1
     number of bfgs steps    =   0

     energy   new            =    -923.9132388709 Ry

     new trust radius        =       0.1887903138 bohr
     new conv_thr            =       0.0000000100 Ry


ATOMIC_POSITIONS (crystal)
B        0.055701350   0.111306247   0.500000000
B        0.055721540   0.277927570   0.500000000
B        0.055721806   0.444459899   0.500000000
B        0.055701341   0.611061327   0.500000000
B        0.055730659   0.777822676   0.500000000
B        0.055730956   0.944573914   0.500000000
B        0.222317637   0.111250254   0.500000000
B        0.222373516   0.278209935   0.500000000
B        0.222582769   0.444624059   0.500000000
B        0.222373758   0.610829434   0.500000000
B        0.222317377   0.777732987   0.500000000
B        0.222304719   0.944485050   0.500000000
B        0.388886262   0.111114148   0.500000000
B        0.388949162   0.277840962   0.500000000
B        0.387801371   0.441615314   0.500000000
B        0.387801483   0.612852030   0.500000000
B        0.388949166   0.777774294   0.500000000
B        0.388886307   0.944438314   0.500000000
B        0.555491851   0.111079064   0.500000000
B        0.555348657   0.277604394   0.500000000
B        0.554050828   0.443270448   0.500000000
B        0.554050544   0.777446046   0.500000000
B        0.555348956   0.944410269   0.500000000
B        0.722197754   0.111152817   0.500000000
B        0.722197496   0.277710550   0.500000000
B        0.722196627   0.444170227   0.500000000
B        0.723005109   0.611625651   0.500000000
B        0.723004883   0.778045020   0.500000000
B        0.722196643   0.944691764   0.500000000
B        0.888973066   0.111247980   0.500000000
B        0.888956793   0.277811450   0.500000000
B        0.888973078   0.444391248   0.500000000
B        0.889130320   0.611176597   0.500000000
B        0.889226196   0.777946127   0.500000000
B        0.889130370   0.944619897   0.500000000
N        0.110999629   0.055412734   0.500000000
N        0.110888716   0.221964275   0.500000000
N        0.110843126   0.388754962   0.500000000
N        0.110888740   0.555591101   0.500000000
N        0.110999621   0.722253561   0.500000000
N        0.111008049   0.888837418   0.500000000
N        0.277763711   0.055507705   0.500000000
N        0.277782105   0.222066268   0.500000000
N        0.277122377   0.388065793   0.500000000
N        0.277122095   0.555722830   0.500000000
N        0.277782125   0.722382595   0.500000000
N        0.277763930   0.888922498   0.500000000
N        0.444479111   0.055572896   0.500000000
N        0.444542210   0.222190583   0.500000000
N        0.444881674   0.388404469   0.500000000
N        0.444881425   0.723144289   0.500000000
N        0.444542470   0.889018909   0.500000000
N        0.611165282   0.055536639   0.500000000
N        0.611165237   0.222295285   0.500000000
N        0.611463197   0.389416621   0.500000000
N        0.610508577   0.558371234   0.500000000
N        0.610508412   0.718803855   0.500000000
N        0.611463178   0.888713346   0.500000000
N        0.777726131   0.055416078   0.500000000
N        0.777730091   0.222198438   0.500000000
N        0.777726366   0.388976602   0.500000000
N        0.777338429   0.555574384   0.500000000
N        0.777295601   0.721981208   0.500000000
N        0.777338635   0.888430567   0.500000000
N        0.944263016   0.055346253   0.500000000
N        0.944299073   0.222092812   0.500000000
N        0.944299356   0.388873524   0.500000000
N        0.944263016   0.555583390   0.500000000
N        0.944227950   0.722169623   0.500000000
[...]
     atom   40 type  2   force =     0.00000000    0.00000000    0.00000000
     atom   41 type  2   force =     0.00000000    0.00000000    0.00000000
     atom   42 type  2   force =     0.00000000    0.00000000    0.00000000
     atom   43 type  2   force =     0.00000000    0.00000000    0.00000000
     atom   44 type  2   force =     0.00000000    0.00000000    0.00000000
     atom   45 type  2   force =     0.00000000    0.00000000    0.00000000
     atom   46 type  2   force =     0.00000000    0.00000000    0.00000000
     atom   47 type  2   force =     0.00000000    0.00000000    0.00000000
     atom   48 type  2   force =     0.00000000    0.00000000    0.00000000
     atom   49 type  2   force =     0.00000000    0.00000000    0.00000000
     atom   50 type  2   force =     0.00000000    0.00000000    0.00000000
     atom   51 type  2   force =     0.00000000    0.00000000    0.00000000
     atom   52 type  2   force =     0.00000000    0.00000000    0.00000000
     atom   53 type  2   force =     0.00000000    0.00000000    0.00000000
     atom   54 type  2   force =     0.00000000    0.00000000    0.00000000
     atom   55 type  2   force =     0.00000000    0.00000000    0.00000000
     atom   56 type  2   force =     0.00000000    0.00000000    0.00000000
     atom   57 type  2   force =     0.00000000    0.00000000    0.00000000
     atom   58 type  2   force =     0.00000000    0.00000000    0.00000000
     atom   59 type  2   force =     0.00000000    0.00000000    0.00000000
     atom   60 type  2   force =     0.00000000    0.00000000    0.00000000
     atom   61 type  2   force =     0.00000000    0.00000000    0.00000000
     atom   62 type  2   force =     0.00000000    0.00000000    0.00000000
     atom   63 type  2   force =     0.00000000    0.00000000    0.00000000
     atom   64 type  2   force =     0.00000000    0.00000000    0.00000000
     atom   65 type  2   force =     0.00000000    0.00000000    0.00000000
     atom   66 type  2   force =     0.00000000    0.00000000    0.00000000
     atom   67 type  2   force =     0.00000000    0.00000000    0.00000000
     atom   68 type  2   force =     0.00000000    0.00000000    0.00000000
     atom   69 type  2   force =     0.00000000    0.00000000    0.00000000
     atom   70 type  2   force =     0.00000000    0.00000000    0.00000000
     atom   71 type  3   force =     0.00000000    0.00000000    0.00000000
     atom   72 type  3   force =     0.00000000    0.00000000    0.00000000
     The Hubbard contrib.    to forces
     atom    1 type  1   force =     0.00000000    0.00000000    0.00000000
     atom    2 type  1   force =     0.00000000    0.00000000    0.00000000
     atom    3 type  1   force =     0.00000000    0.00000000    0.00000000
     atom    4 type  1   force =     0.00000000    0.00000000    0.00000000
     atom    5 type  1   force =     0.00000000    0.00000000    0.00000000
     atom    6 type  1   force =     0.00000000    0.00000000    0.00000000
     atom    7 type  1   force =     0.00000000    0.00000000    0.00000000
     atom    8 type  1   force =     0.00000000    0.00000000    0.00000000
     atom    9 type  1   force =     0.00000000    0.00000000    0.00000000
     atom   10 type  1   force =     0.00000000    0.00000000    0.00000000
     atom   11 type  1   force =     0.00000000    0.00000000    0.00000000
     atom   12 type  1   force =     0.00000000    0.00000000    0.00000000
     atom   13 type  1   force =     0.00000000    0.00000000    0.00000000
     atom   14 type  1   force =     0.00000000    0.00000000    0.00000000
     atom   15 type  1   force =     0.00000000    0.00000000    0.00000000
     atom   16 type  1   force =     0.00000000    0.00000000    0.00000000
     atom   17 type  1   force =     0.00000000    0.00000000    0.00000000
     atom   18 type  1   force =     0.00000000    0.00000000    0.00000000
     atom   19 type  1   force =     0.00000000    0.00000000    0.00000000
     atom   20 type  1   force =     0.00000000    0.00000000    0.00000000
     atom   21 type  1   force =     0.00000000    0.00000000    0.00000000
     atom   22 type  1   force =     0.00000000    0.00000000    0.00000000
     atom   23 type  1   force =     0.00000000    0.00000000    0.00000000
     atom   24 type  1   force =     0.00000000    0.00000000    0.00000000
     atom   25 type  1   force =     0.00000000    0.00000000    0.00000000
     atom   26 type  1   force =     0.00000000    0.00000000    0.00000000
     atom   27 type  1   force =     0.00000000    0.00000000    0.00000000
     atom   28 type  1   force =     0.00000000    0.00000000    0.00000000
     atom   29 type  1   force =     0.00000000    0.00000000    0.00000000
     atom   30 type  1   force =     0.00000000    0.00000000    0.00000000
     atom   31 type  1   force =     0.00000000    0.00000000    0.00000000
     atom   32 type  1   force =     0.00000000    0.00000000    0.00000000
     atom   33 type  1   force =     0.00000000    0.00000000    0.00000000
     atom   34 type  1   force =     0.00000000    0.00000000    0.00000000
     atom   35 type  1   force =     0.00000000    0.00000000    0.00000000
     atom   36 type  2   force =     0.00000000    0.00000000    0.00000000
     atom   37 type  2   force =     0.00000000    0.00000000    0.00000000
     atom   38 type  2   force =     0.00000000    0.00000000    0.00000000
     atom   39 type  2   force =     0.00000000    0.00000000    0.00000000
     atom   40 type  2   force =     0.00000000    0.00000000    0.00000000
     atom   41 type  2   force =     0.00000000    0.00000000    0.00000000
     atom   42 type  2   force =     0.00000000    0.00000000    0.00000000
     atom   43 type  2   force =     0.00000000    0.00000000    0.00000000
     atom   44 type  2   force =     0.00000000    0.00000000    0.00000000
     atom   45 type  2   force =     0.00000000    0.00000000    0.00000000
     atom   46 type  2   force =     0.00000000    0.00000000    0.00000000
     atom   47 type  2   force =     0.00000000    0.00000000    0.00000000
     atom   48 type  2   force =     0.00000000    0.00000000    0.00000000
     atom   49 type  2   force =     0.00000000    0.00000000    0.00000000
     atom   50 type  2   force =     0.00000000    0.00000000    0.00000000
     atom   51 type  2   force =     0.00000000    0.00000000    0.00000000
     atom   52 type  2   force =     0.00000000    0.00000000    0.00000000
     atom   53 type  2   force =     0.00000000    0.00000000    0.00000000
     atom   54 type  2   force =     0.00000000    0.00000000    0.00000000
     atom   55 type  2   force =     0.00000000    0.00000000    0.00000000
     atom   56 type  2   force =     0.00000000    0.00000000    0.00000000
     atom   57 type  2   force =     0.00000000    0.00000000    0.00000000
     atom   58 type  2   force =     0.00000000    0.00000000    0.00000000
     atom   59 type  2   force =     0.00000000    0.00000000    0.00000000
     atom   60 type  2   force =     0.00000000    0.00000000    0.00000000
     atom   61 type  2   force =     0.00000000    0.00000000    0.00000000
     atom   62 type  2   force =     0.00000000    0.00000000    0.00000000
     atom   63 type  2   force =     0.00000000    0.00000000    0.00000000
     atom   64 type  2   force =     0.00000000    0.00000000    0.00000000
     atom   65 type  2   force =     0.00000000    0.00000000    0.00000000
     atom   66 type  2   force =     0.00000000    0.00000000    0.00000000
     atom   67 type  2   force =     0.00000000    0.00000000    0.00000000
     atom   68 type  2   force =     0.00000000    0.00000000    0.00000000
     atom   69 type  2   force =     0.00000000    0.00000000    0.00000000
     atom   70 type  2   force =     0.00000000    0.00000000    0.00000000
     atom   71 type  3   force =     0.00000000    0.00000000    0.00000000
     atom   72 type  3   force =     0.00000000    0.00000000    0.00000000
     The SCF correction term to forces
     atom    1 type  1   force =    -0.00000028   -0.00000027    0.00000000
     atom    2 type  1   force =     0.00000009   -0.00000024    0.00000000
     atom    3 type  1   force =    -0.00000017    0.00000020    0.00000000
     atom    4 type  1   force =    -0.00000038   -0.00000011    0.00000000
     atom    5 type  1   force =    -0.00000050   -0.00000017    0.00000000
     atom    6 type  1   force =    -0.00000040   -0.00000035    0.00000000
     atom    7 type  1   force =     0.00000017   -0.00000000    0.00000000
     atom    8 type  1   force =     0.00000002   -0.00000029    0.00000000
     atom    9 type  1   force =    -0.00000049   -0.00000028    0.00000000
     atom   10 type  1   force =    -0.00000024    0.00000016    0.00000000
     atom   11 type  1   force =     0.00000008    0.00000015    0.00000000
     atom   12 type  1   force =     0.00000010    0.00000006    0.00000000
     atom   13 type  1   force =     0.00000014    0.00000024    0.00000000
     atom   14 type  1   force =     0.00000045   -0.00000005    0.00000000
     atom   15 type  1   force =     0.00000057   -0.00000154    0.00000000
     atom   16 type  1   force =    -0.00000105    0.00000127    0.00000000
     atom   17 type  1   force =     0.00000018    0.00000041    0.00000000
     atom   18 type  1   force =     0.00000028   -0.00000000    0.00000000
     atom   19 type  1   force =    -0.00000005   -0.00000003    0.00000000
     atom   20 type  1   force =    -0.00000020   -0.00000049    0.00000000
     atom   21 type  1   force =     0.00000014    0.00000036    0.00000000
     atom   22 type  1   force =     0.00000038   -0.00000006    0.00000000
     atom   23 type  1   force =    -0.00000053    0.00000007    0.00000000
     atom   24 type  1   force =    -0.00000001   -0.00000027    0.00000000
     atom   25 type  1   force =    -0.00000024    0.00000013    0.00000000
     atom   26 type  1   force =     0.00000038    0.00000020    0.00000000
     atom   27 type  1   force =    -0.00000042    0.00000004    0.00000000
     atom   28 type  1   force =    -0.00000018   -0.00000039    0.00000000
     atom   29 type  1   force =     0.00000036    0.00000023    0.00000000
     atom   30 type  1   force =     0.00000004   -0.00000050    0.00000000
     atom   31 type  1   force =    -0.00000011   -0.00000007    0.00000000
     atom   32 type  1   force =    -0.00000041    0.00000028    0.00000000
     atom   33 type  1   force =     0.00000004    0.00000021    0.00000000
     atom   34 type  1   force =    -0.00000002   -0.00000001    0.00000000
     atom   35 type  1   force =     0.00000020   -0.00000007    0.00000000
     atom   36 type  2   force =    -0.00000052   -0.00000035    0.00000000
     atom   37 type  2   force =    -0.00000010   -0.00000056    0.00000000
     atom   38 type  2   force =    -0.00000036   -0.00000021    0.00000000
     atom   39 type  2   force =    -0.00000053    0.00000020    0.00000000
     atom   40 type  2   force =    -0.00000056   -0.00000028    0.00000000
     atom   41 type  2   force =    -0.00000047   -0.00000027    0.00000000
     atom   42 type  2   force =     0.00000052    0.00000006    0.00000000
     atom   43 type  2   force =     0.00000057   -0.00000004    0.00000000
     atom   44 type  2   force =    -0.00000022   -0.00000170    0.00000000
     atom   45 type  2   force =    -0.00000158    0.00000066    0.00000000
     atom   46 type  2   force =     0.00000025    0.00000051    0.00000000
     atom   47 type  2   force =     0.00000031    0.00000042    0.00000000
     atom   48 type  2   force =     0.00000017    0.00000010    0.00000000
     atom   49 type  2   force =     0.00000013   -0.00000014    0.00000000
     atom   50 type  2   force =     0.00000119   -0.00000150    0.00000000
     atom   51 type  2   force =    -0.00000071    0.00000178    0.00000000
     atom   52 type  2   force =    -0.00000006    0.00000018    0.00000000
     atom   53 type  2   force =    -0.00000049    0.00000009    0.00000000
     atom   54 type  2   force =    -0.00000017   -0.00000047    0.00000000
     atom   55 type  2   force =    -0.00000011    0.00000002    0.00000000
     atom   56 type  2   force =     0.00000193    0.00000063    0.00000000
     atom   57 type  2   force =     0.00000151    0.00000136    0.00000000
     atom   58 type  2   force =    -0.00000004   -0.00000010    0.00000000
     atom   59 type  2   force =     0.00000032   -0.00000017    0.00000000
     atom   60 type  2   force =    -0.00000047   -0.00000027    0.00000000
     atom   61 type  2   force =     0.00000001    0.00000037    0.00000000
     atom   62 type  2   force =     0.00000006    0.00000051    0.00000000
     atom   63 type  2   force =     0.00000016    0.00000009    0.00000000
     atom   64 type  2   force =     0.00000047   -0.00000020    0.00000000
     atom   65 type  2   force =     0.00000004   -0.00000063    0.00000000
     atom   66 type  2   force =     0.00000013   -0.00000063    0.00000000
     atom   67 type  2   force =    -0.00000048    0.00000043    0.00000000
     atom   68 type  2   force =    -0.00000053    0.00000035    0.00000000
     atom   69 type  2   force =    -0.00000058   -0.00000009    0.00000000
     atom   70 type  2   force =    -0.00000037   -0.00000046    0.00000000
     atom   71 type  3   force =     0.00000307    0.00000178    0.00000000
     atom   72 type  3   force =     0.00000091    0.00000052    0.00000000

     Total force =     0.001781     Total SCF correction =     0.000007

     bfgs converged in   9 scf cycles and   8 bfgs steps
     (criteria: energy <  1.0E-05 Ry, force <  1.0E-03 Ry/Bohr)

     End of BFGS Geometry Optimization

     Final energy   =    -923.9391671411 Ry
Begin final coordinates

ATOMIC_POSITIONS (crystal)
B        0.055328964   0.110937971   0.500000000
B        0.055676135   0.277895384   0.500000000
B        0.055676145   0.444447101   0.500000000
B        0.055328972   0.611057341   0.500000000
B        0.055651896   0.777800771   0.500000000
B        0.055651885   0.944517478   0.500000000
B        0.222110468   0.110920822   0.500000000
B        0.222099484   0.277643081   0.500000000
B        0.223079583   0.444872948   0.500000000
B        0.222099490   0.611122734   0.500000000
B        0.222110482   0.777855966   0.500000000
B        0.222205277   0.944435807   0.500000000
B        0.388888419   0.110803657   0.500000000
B        0.388686821   0.276515605   0.500000000
B        0.389436819   0.442850409   0.500000000
B        0.389436815   0.613252764   0.500000000
B        0.388686822   0.778837566   0.500000000
B        0.388888419   0.944751105   0.500000000
B        0.555656922   0.111161635   0.500000000
B        0.555592908   0.278175458   0.500000000
B        0.554535557   0.444741755   0.500000000
B        0.554535553   0.776460143   0.500000000
B        0.555592909   0.944083796   0.500000000
B        0.722187569   0.111013601   0.500000000
B        0.722187567   0.277840328   0.500000000
B        0.721977139   0.444573950   0.500000000
B        0.722455935   0.612093637   0.500000000
B        0.722455907   0.777028617   0.500000000
B        0.721977136   0.944069524   0.500000000
B        0.888758462   0.111003199   0.500000000
B        0.888845666   0.277756013   0.500000000
B        0.888758471   0.444421604   0.500000000
B        0.888559660   0.611142712   0.500000000
B        0.889539888   0.778103118   0.500000000
B        0.888559646   0.944083278   0.500000000
N        0.110954620   0.055397363   0.500000000
N        0.110813170   0.221890944   0.500000000
N        0.111386082   0.389026185   0.500000000
N        0.110813187   0.555588531   0.500000000
N        0.110954630   0.722223563   0.500000000
N        0.111048012   0.888857158   0.500000000
N        0.277764839   0.055431074   0.500000000
N        0.277636909   0.221757542   0.500000000
N        0.277802628   0.388274900   0.500000000
N        0.277802630   0.556194000   0.500000000
N        0.277636922   0.722545648   0.500000000
N        0.277764831   0.889000036   0.500000000
N        0.444584490   0.055625393   0.500000000
N        0.444598310   0.221694752   0.500000000
N        0.444454336   0.387148284   0.500000000
N        0.444454333   0.723972349   0.500000000
N        0.444598304   0.889569826   0.500000000
N        0.611159682   0.055343910   0.500000000
N        0.611159678   0.222482073   0.500000000
N        0.611079262   0.389880282   0.500000000
N        0.610627313   0.558132230   0.500000000
N        0.610627280   0.719161364   0.500000000
N        0.611079256   0.887865267   0.500000000
N        0.777563830   0.055183122   0.500000000
N        0.777675125   0.222170721   0.500000000
N        0.777563837   0.389047011   0.500000000
N        0.777023103   0.555788141   0.500000000
N        0.778350338   0.722508315   0.500000000
N        0.777023080   0.887901219   0.500000000
N        0.944016723   0.055116337   0.500000000
N        0.944329548   0.222112210   0.500000000
N        0.944329561   0.388883640   0.500000000
N        0.944016732   0.555566684   0.500000000
N        0.944432242   0.722212325   0.500000000
N        0.944432229   0.888886203   0.500000000
C        0.555459676   0.611063004   0.500000000
C        0.449739690   0.558202997   0.500000000
End final coordinates



     Writing output data file BN.save
 
     init_run     :      2.33s CPU      2.74s WALL (       1 calls)
     electrons    :    151.21s CPU    153.93s WALL (      10 calls)
     update_pot   :      6.28s CPU      7.06s WALL (       9 calls)
     forces       :      5.27s CPU      5.32s WALL (      10 calls)

     Called by init_run:
     wfcinit      :      0.51s CPU      0.54s WALL (       1 calls)
     wfcinit:atom :      0.00s CPU      0.01s WALL (       1 calls)
     wfcinit:wfcr :      0.49s CPU      0.51s WALL (       1 calls)
     potinit      :      0.67s CPU      0.68s WALL (       2 calls)

     Called by electrons:
     c_bands      :    133.78s CPU    135.02s WALL (     100 calls)
     sum_band     :      9.42s CPU      9.59s WALL (     100 calls)
     v_of_rho     :      4.93s CPU      5.01s WALL (     107 calls)
     v_h          :      0.21s CPU      0.22s WALL (     107 calls)
     v_xc         :      4.71s CPU      4.78s WALL (     107 calls)
     mix_rho      :      1.16s CPU      1.18s WALL (     100 calls)

     Called by c_bands:
     init_us_2    :      1.41s CPU      1.45s WALL (     201 calls)
     cegterg      :    127.51s CPU    128.61s WALL (     100 calls)

     Called by sum_band:

     Called by *egterg:
     h_psi        :     65.47s CPU     66.02s WALL (     524 calls)
     g_psi        :      0.29s CPU      0.30s WALL (     423 calls)
     cdiaghg      :     36.38s CPU     36.72s WALL (     510 calls)
     cegterg:over :     10.11s CPU     10.17s WALL (     423 calls)
     cegterg:upda :      6.18s CPU      6.21s WALL (     423 calls)
     cegterg:last :      2.44s CPU      2.45s WALL (     104 calls)

     Called by h_psi:
     h_psi:pot    :     64.28s CPU     64.80s WALL (     524 calls)
     h_psi:calbec :      9.71s CPU      9.75s WALL (     524 calls)
     vloc_psi     :     45.60s CPU     46.02s WALL (     524 calls)
     add_vuspsi   :      8.98s CPU      9.02s WALL (     524 calls)

     General routines
     calbec       :     10.94s CPU     11.00s WALL (     564 calls)
     fft          :      3.85s CPU      3.88s WALL (    2251 calls)
     fftw         :     49.20s CPU     49.68s WALL (  113434 calls)
 
     Parallel routines
     fft_scatter  :     30.81s CPU     31.15s WALL (  115685 calls)
 
     PWSCF        :  2m48.93s CPU     2m55.17s WALL

 
   This run was terminated on:  22:49:38  10Feb2021            

=------------------------------------------------------------------------------=
   JOB DONE.
=------------------------------------------------------------------------------=
