
     Program PWSCF v.6.1 (svn rev. 13369) starts on 10Feb2021 at 22:57:32 

     This program is part of the open-source Quantum ESPRESSO suite
     for quantum simulation of materials; please cite
         "P. Giannozzi et al., J. Phys.:Condens. Matter 21 395502 (2009);
          URL http://www.quantum-espresso.org", 
     in publications or presentations arising from this work. More details at
     http://www.quantum-espresso.org/quote

     Parallel version (MPI), running on   160 processors
     K-points division:     npool     =       2
     R & G space division:  proc/nbgrp/npool/nimage =      80
     Reading input from scf.in
Warning: card &CELL ignored
Warning: card / ignored
Warning: card &IONS ignored
Warning: card / ignored

     Current dimensions of program PWSCF are:
     Max number of different atomic species (ntypx) = 10
     Max number of k-points (npk) = 120000
     Max angular momentum in pseudopotentials (lmaxx) =  3

     Subspace diagonalization in iterative solution of the eigenvalue problem:
     a serial algorithm will be used

 
     Parallelization info
     --------------------
     sticks:   dense  smooth     PW     G-vecs:    dense   smooth      PW
     Min         153     153     38                14461    14461    1806
     Max         154     154     39                14464    14464    1813
     Sum       12259   12259   3067              1156971  1156971  144701
 


     bravais-lattice index     =            0
     lattice parameter (alat)  =      28.4287  a.u.
     unit-cell volume          =   20997.3881 (a.u.)^3
     number of atoms/cell      =           72
     number of atomic types    =            3
     number of electrons       =       288.00 (up: 144.00, down: 144.00)
     number of Kohn-Sham states=          168
     kinetic-energy cutoff     =      55.0000  Ry
     charge density cutoff     =     220.0000  Ry
     convergence threshold     =      1.0E-08
     mixing beta               =       0.7000
     number of iterations used =            8  plain     mixing
     Exchange-correlation      = PBE ( 1  4  3  4 0 0)

     celldm(1)=  28.428666  celldm(2)=   0.000000  celldm(3)=   0.000000
     celldm(4)=   0.000000  celldm(5)=   0.000000  celldm(6)=   0.000000

     crystal axes: (cart. coord. in units of alat)
               a(1) = (   1.000000   0.000000   0.000000 )  
               a(2) = (  -0.499999   0.866026   0.000000 )  
               a(3) = (   0.000000   0.000000   1.055273 )  

     reciprocal axes: (cart. coord. in units 2 pi/alat)
               b(1) = (  1.000000  0.577349  0.000000 )  
               b(2) = (  0.000000  1.154700  0.000000 )  
               b(3) = (  0.000000  0.000000  0.947622 )  


     PseudoPot. # 1 for B  read from file:
     ~/pseudo-ONCV-proj/B_ONCV_PBE-1.0.upf
     MD5 check sum: Not computed, couldn't open file
     Pseudo is Norm-conserving, Zval =  3.0
     Generated using ONCVPSP code by D. R. Hamann
     Using radial grid of 1534 points,  4 beta functions with: 
                l(1) =   0
                l(2) =   0
                l(3) =   1
                l(4) =   1

     PseudoPot. # 2 for N  read from file:
     ~/pseudo-ONCV-proj/N_ONCV_PBE-1.0.upf
     MD5 check sum: Not computed, couldn't open file
     Pseudo is Norm-conserving, Zval =  5.0
     Generated using ONCVPSP code by D. R. Hamann
     Using radial grid of 1058 points,  4 beta functions with: 
                l(1) =   0
                l(2) =   0
                l(3) =   1
                l(4) =   1

     PseudoPot. # 3 for C  read from file:
     ~/pseudo-ONCV-proj/C_ONCV_PBE-1.0.upf
     MD5 check sum: Not computed, couldn't open file
     Pseudo is Norm-conserving, Zval =  4.0
     Generated using ONCVPSP code by D. R. Hamann
     Using radial grid of 1248 points,  4 beta functions with: 
                l(1) =   0
                l(2) =   0
                l(3) =   1
                l(4) =   1

     atomic species   valence    mass     pseudopotential
        B              3.00    10.81100     B ( 1.00)
        N              5.00    14.00674     N ( 1.00)
        C              4.00    12.01070     C ( 1.00)

     Starting magnetic structure 
     atomic species   magnetization
        B            1.000
        N            0.000
        C            0.000

      2 Sym. Ops. (no inversion) found


                                    s                        frac. trans.

      isym =  1     identity                                     

 cryst.   s( 1) = (     1          0          0      )
                  (     0          1          0      )
                  (     0          0          1      )

 cart.    s( 1) = (  1.0000000 -0.0000000  0.0000000 )
                  (  0.0000000  1.0000000  0.0000000 )
                  (  0.0000000  0.0000000  1.0000000 )


      isym =  2     inv. 180 deg rotation - cart. axis [0,0,1]   

 cryst.   s( 2) = (     1          0          0      )
                  (     0          1          0      )
                  (     0          0         -1      )

 cart.    s( 2) = (  1.0000000 -0.0000000  0.0000000 )
                  (  0.0000000  1.0000000  0.0000000 )
                  (  0.0000000  0.0000000 -1.0000000 )


   Cartesian axes

     site n.     atom                  positions (alat units)
         1           B   tau(   1) = (  -0.0000929   0.0959981   0.5276366  )
         2           B   tau(   2) = (  -0.0833902   0.2404156   0.5276366  )
         3           B   tau(   3) = (  -0.1668221   0.3849243   0.5276366  )
         4           B   tau(   4) = (  -0.2502424   0.5292708   0.5276366  )
         5           B   tau(   5) = (  -0.3333093   0.6736011   0.5276366  )
         6           B   tau(   6) = (  -0.4166320   0.8179207   0.5276366  )
         7           B   tau(   7) = (   0.1666685   0.0959630   0.5276366  )
         8           B   tau(   8) = (   0.0831093   0.2400746   0.5276366  )
         9           B   tau(   9) = (   0.0000551   0.3849318   0.5276366  )
        10           B   tau(  10) = (  -0.0838675   0.5292877   0.5276366  )
        11           B   tau(  11) = (  -0.1668918   0.6737080   0.5276366  )
        12           B   tau(  12) = (  -0.2500070   0.8179087   0.5276366  )
        13           B   tau(  13) = (   0.3334404   0.0959787   0.5276366  )
        14           B   tau(  14) = (   0.2504371   0.2395957   0.5276366  )
        15           B   tau(  15) = (   0.1672424   0.3828765   0.5276366  )
        16           B   tau(  16) = (   0.0818689   0.5307480   0.5276366  )
        17           B   tau(  17) = (  -0.0006182   0.6744373   0.5276366  )
        18           B   tau(  18) = (  -0.0834922   0.8181289   0.5276366  )
        19           B   tau(  19) = (   0.5000026   0.0962263   0.5276366  )
        20           B   tau(  20) = (   0.4164181   0.2407252   0.5276366  )
        21           B   tau(  21) = (   0.3323455   0.3851726   0.5276366  )
        22           B   tau(  22) = (   0.1664092   0.6725835   0.5276366  )
        23           B   tau(  23) = (   0.0833507   0.8176164   0.5276366  )
        24           B   tau(  24) = (   0.6666383   0.0961410   0.5276366  )
        25           B   tau(  25) = (   0.5832467   0.2405799   0.5276366  )
        26           B   tau(  26) = (   0.4999688   0.3850601   0.5276366  )
        27           B   tau(  27) = (   0.4171883   0.5298208   0.5276366  )
        28           B   tau(  28) = (   0.3340994   0.6737354   0.5276366  )
        29           B   tau(  29) = (   0.2501236   0.8178060   0.5276366  )
        30           B   tau(  30) = (   0.8332755   0.0961500   0.5276366  )
        31           B   tau(  31) = (   0.7499530   0.2405353   0.5276366  )
        32           B   tau(  32) = (   0.6665732   0.3848876   0.5276366  )
        33           B   tau(  33) = (   0.5832512   0.5292645   0.5276366  )
        34           B   tau(  34) = (   0.5005064   0.6738675   0.5276366  )
        35           B   tau(  35) = (   0.4166492   0.8178283   0.5276366  )
        36           N   tau(  36) = (   0.0832162   0.0479476   0.5276366  )
        37           N   tau(  37) = (  -0.0002942   0.1920013   0.5276366  )
        38           N   tau(  38) = (  -0.0833805   0.3367602   0.5276366  )
        39           N   tau(  39) = (  -0.1672019   0.4810946   0.5276366  )
        40           N   tau(  40) = (  -0.2502005   0.6254439   0.5276366  )
        41           N   tau(  41) = (  -0.3334119   0.7697548   0.5276366  )
        42           N   tau(  42) = (   0.2500345   0.0479527   0.5276366  )
        43           N   tau(  43) = (   0.1666474   0.1918806   0.5276366  )
        44           N   tau(  44) = (   0.0831489   0.3359178   0.5276366  )
        45           N   tau(  45) = (  -0.0008452   0.4814002   0.5276366  )
        46           N   tau(  46) = (  -0.0838355   0.6257308   0.5276366  )
        47           N   tau(  47) = (  -0.1667868   0.7699103   0.5276366  )
        48           N   tau(  48) = (   0.4168074   0.0481935   0.5276366  )
        49           N   tau(  49) = (   0.3338054   0.1918342   0.5276366  )
        50           N   tau(  50) = (   0.2506630   0.3348150   0.5276366  )
        51           N   tau(  51) = (   0.0819570   0.6270232   0.5276366  )
        52           N   tau(  52) = (  -0.0002965   0.7705171   0.5276366  )
        53           N   tau(  53) = (   0.5834868   0.0479102   0.5276366  )
        54           N   tau(  54) = (   0.4999019   0.1926839   0.5276366  )
        55           N   tau(  55) = (   0.4160570   0.3377296   0.5276366  )
        56           N   tau(  56) = (   0.3325779   0.4834674   0.5276366  )
        57           N   tau(  57) = (   0.2516510   0.6236372   0.5276366  )
        58           N   tau(  58) = (   0.1671783   0.7688014   0.5276366  )
        59           N   tau(  59) = (   0.7499164   0.0478831   0.5276366  )
        60           N   tau(  60) = (   0.6665679   0.1923929   0.5276366  )
        61           N   tau(  61) = (   0.5830934   0.3368299   0.5276366  )
        62           N   tau(  62) = (   0.4997995   0.4811576   0.5276366  )
        63           N   tau(  63) = (   0.4173477   0.6258558   0.5276366  )
        64           N   tau(  64) = (   0.3332616   0.7696104   0.5276366  )
        65           N   tau(  65) = (   0.9164675   0.0478937   0.5276366  )
        66           N   tau(  66) = (   0.8331752   0.1923554   0.5276366  )
        67           N   tau(  67) = (   0.7498393   0.3366978   0.5276366  )
        68           N   tau(  68) = (   0.6663783   0.4810621   0.5276366  )
        69           N   tau(  69) = (   0.5834303   0.6254668   0.5276366  )
        70           N   tau(  70) = (   0.5000523   0.7698821   0.5276366  )
        71           C   tau(  71) = (   0.2529328   0.5309308   0.5276366  )
        72           C   tau(  72) = (   0.1694268   0.4827186   0.5276366  )

   Crystallographic axes

     site n.     atom                  positions (cryst. coord.)
         1           B   tau(   1) = (  0.0553315  0.1108489  0.5000000  )
         2           B   tau(   2) = (  0.0554135  0.2776078  0.5000000  )
         3           B   tau(   3) = (  0.0554135  0.4444720  0.5000000  )
         4           B   tau(   4) = (  0.0553315  0.6111489  0.5000000  )
         5           B   tau(   5) = (  0.0555934  0.7778070  0.5000000  )
         6           B   tau(   6) = (  0.0555934  0.9444528  0.5000000  )
         7           B   tau(   7) = (  0.2220727  0.1108085  0.5000000  )
         8           B   tau(   8) = (  0.2217161  0.2772141  0.5000000  )
         9           B   tau(   9) = (  0.2222949  0.4444806  0.5000000  )
        10           B   tau(  10) = (  0.2217161  0.6111684  0.5000000  )
        11           B   tau(  11) = (  0.2220727  0.7779305  0.5000000  )
        12           B   tau(  12) = (  0.2222115  0.9444389  0.5000000  )
        13           B   tau(  13) = (  0.3888535  0.1108266  0.5000000  )
        14           B   tau(  14) = (  0.3887673  0.2766611  0.5000000  )
        15           B   tau(  15) = (  0.3882956  0.4421074  0.5000000  )
        16           B   tau(  16) = (  0.3882956  0.6128546  0.5000000  )
        17           B   tau(  17) = (  0.3887673  0.7787726  0.5000000  )
        18           B   tau(  18) = (  0.3888535  0.9446933  0.5000000  )
        19           B   tau(  19) = (  0.5555587  0.1111125  0.5000000  )
        20           B   tau(  20) = (  0.5554005  0.2779654  0.5000000  )
        21           B   tau(  21) = (  0.5547244  0.4447587  0.5000000  )
        22           B   tau(  22) = (  0.5547244  0.7766320  0.5000000  )
        23           B   tau(  23) = (  0.5554005  0.9441015  0.5000000  )
        24           B   tau(  24) = (  0.7221452  0.1110140  0.5000000  )
        25           B   tau(  25) = (  0.7221452  0.2777976  0.5000000  )
        26           B   tau(  26) = (  0.7222828  0.4446288  0.5000000  )
        27           B   tau(  27) = (  0.7230797  0.6117840  0.5000000  )
        28           B   tau(  28) = (  0.7230797  0.7779621  0.5000000  )
        29           B   tau(  29) = (  0.7222828  0.9443203  0.5000000  )
        30           B   tau(  30) = (  0.8887876  0.1110243  0.5000000  )
        31           B   tau(  31) = (  0.8888257  0.2777460  0.5000000  )
        32           B   tau(  32) = (  0.8887876  0.4444296  0.5000000  )
        33           B   tau(  33) = (  0.8888213  0.6111416  0.5000000  )
        34           B   tau(  34) = (  0.8895630  0.7781147  0.5000000  )
        35           B   tau(  35) = (  0.8888213  0.9443461  0.5000000  )
        36           N   tau(  36) = (  0.1108987  0.0553651  0.5000000  )
        37           N   tau(  37) = (  0.1105575  0.2217039  0.5000000  )
        38           N   tau(  38) = (  0.1110475  0.3888569  0.5000000  )
        39           N   tau(  39) = (  0.1105575  0.5555199  0.5000000  )
        40           N   tau(  40) = (  0.1108988  0.7221999  0.5000000  )
        41           N   tau(  41) = (  0.1110051  0.8888357  0.5000000  )
        42           N   tau(  42) = (  0.2777199  0.0553710  0.5000000  )
        43           N   tau(  43) = (  0.2774294  0.2215645  0.5000000  )
        44           N   tau(  44) = (  0.2770906  0.3878841  0.5000000  )
        45           N   tau(  45) = (  0.2770906  0.5558727  0.5000000  )
        46           N   tau(  46) = (  0.2774294  0.7225312  0.5000000  )
        47           N   tau(  47) = (  0.2777199  0.8890152  0.5000000  )
        48           N   tau(  48) = (  0.4446319  0.0556491  0.5000000  )
        49           N   tau(  49) = (  0.4445606  0.2215109  0.5000000  )
        50           N   tau(  50) = (  0.4439680  0.3866108  0.5000000  )
        51           N   tau(  51) = (  0.4439680  0.7240235  0.5000000  )
        52           N   tau(  52) = (  0.4445606  0.8897159  0.5000000  )
        53           N   tau(  53) = (  0.6111477  0.0553219  0.5000000  )
        54           N   tau(  54) = (  0.6111477  0.2224921  0.5000000  )
        55           N   tau(  55) = (  0.6110448  0.3899763  0.5000000  )
        56           N   tau(  56) = (  0.6117071  0.5582597  0.5000000  )
        57           N   tau(  57) = (  0.6117071  0.7201138  0.5000000  )
        58           N   tau(  58) = (  0.6110448  0.8877348  0.5000000  )
        59           N   tau(  59) = (  0.7775617  0.0552906  0.5000000  )
        60           N   tau(  60) = (  0.7776457  0.2221560  0.5000000  )
        61           N   tau(  61) = (  0.7775617  0.3889374  0.5000000  )
        62           N   tau(  62) = (  0.7775952  0.5555925  0.5000000  )
        63           N   tau(  63) = (  0.7786847  0.7226755  0.5000000  )
        64           N   tau(  64) = (  0.7775952  0.8886689  0.5000000  )
        65           N   tau(  65) = (  0.9441189  0.0553029  0.5000000  )
        66           N   tau(  66) = (  0.9442313  0.2221127  0.5000000  )
        67           N   tau(  67) = (  0.9442313  0.3887849  0.5000000  )
        68           N   tau(  68) = (  0.9441189  0.5554822  0.5000000  )
        69           N   tau(  69) = (  0.9445428  0.7222264  0.5000000  )
        70           N   tau(  70) = (  0.9445428  0.8889827  0.5000000  )
        71           C   tau(  71) = (  0.5594650  0.6130657  0.5000000  )
        72           C   tau(  72) = (  0.4481237  0.5573950  0.5000000  )

     number of k points=     1
                       cart. coord. in units 2pi/alat
        k(    1) = (   0.0000000   0.0000000   0.0000000), wk =   1.0000000

                       cryst. coord.
        k(    1) = (   0.0000000   0.0000000   0.0000000), wk =   1.0000000

     Dense  grid:  1156971 G-vectors     FFT dimensions: ( 135, 135, 144)

     Estimated max dynamical RAM per process >      68.84MB

     Estimated total allocated dynamical RAM >   11014.86MB
     Generating pointlists ...
     new r_m :   0.0393 (alat units)  1.1166 (a.u.) for type    1
     new r_m :   0.0382 (alat units)  1.0873 (a.u.) for type    2
     new r_m :   0.0382 (alat units)  1.0873 (a.u.) for type    3

     Initial potential from superposition of free atoms
     Check: negative starting charge=(component1):   -0.001385
     Check: negative starting charge=(component2):   -0.001912

     starting charge  287.99093, renormalised to  288.00000

     negative rho (up, down):  1.385E-03 1.912E-03
     Starting wfc are  288 randomized atomic wfcs

     total cpu time spent up to now is        3.0 secs

     per-process dynamical memory:    91.4 Mb

     Self-consistent Calculation

     iteration #  1     ecut=    55.00 Ry     beta=0.70
     Davidson diagonalization with overlap
     ethr =  1.00E-02,  avg # of iterations =  2.5

     negative rho (up, down):  1.552E-04 3.038E-04

     total cpu time spent up to now is        4.4 secs

     total energy              =    -916.55477461 Ry
     Harris-Foulkes estimate   =    -922.74026752 Ry
     estimated scf accuracy    <      17.35463150 Ry

     total magnetization       =     0.00 Bohr mag/cell
     absolute magnetization    =    18.29 Bohr mag/cell

     iteration #  2     ecut=    55.00 Ry     beta=0.70
     Davidson diagonalization with overlap
     ethr =  6.03E-03,  avg # of iterations =  3.0

     negative rho (up, down):  6.259E-05 1.186E-04

     total cpu time spent up to now is        5.8 secs

     total energy              =    -921.46500321 Ry
     Harris-Foulkes estimate   =    -925.97336785 Ry
     estimated scf accuracy    <      10.44334679 Ry

     total magnetization       =    -0.00 Bohr mag/cell
     absolute magnetization    =    13.57 Bohr mag/cell

     iteration #  3     ecut=    55.00 Ry     beta=0.70
     Davidson diagonalization with overlap
     ethr =  3.63E-03,  avg # of iterations =  3.0

     negative rho (up, down):  5.801E-06 1.267E-05

     total cpu time spent up to now is        7.1 secs

     total energy              =    -923.56044517 Ry
     Harris-Foulkes estimate   =    -923.53748524 Ry
     estimated scf accuracy    <       0.44979687 Ry

     total magnetization       =    -0.00 Bohr mag/cell
     absolute magnetization    =     8.67 Bohr mag/cell

     iteration #  4     ecut=    55.00 Ry     beta=0.70
     Davidson diagonalization with overlap
     c_bands:  1 eigenvalues not converged
     ethr =  1.56E-04,  avg # of iterations = 18.5

     total cpu time spent up to now is       11.2 secs

     total energy              =    -923.76785243 Ry
     Harris-Foulkes estimate   =    -923.95808423 Ry
     estimated scf accuracy    <       0.68609075 Ry

     total magnetization       =     0.00 Bohr mag/cell
     absolute magnetization    =     5.33 Bohr mag/cell

     iteration #  5     ecut=    55.00 Ry     beta=0.70
     Davidson diagonalization with overlap
     ethr =  1.56E-04,  avg # of iterations =  6.5

     negative rho (up, down):  6.589E-09 1.154E-08

     total cpu time spent up to now is       12.8 secs

     total energy              =    -923.89890786 Ry
     Harris-Foulkes estimate   =    -923.90117396 Ry
     estimated scf accuracy    <       0.03634609 Ry

     total magnetization       =     0.00 Bohr mag/cell
     absolute magnetization    =     3.57 Bohr mag/cell

     iteration #  6     ecut=    55.00 Ry     beta=0.70
     Davidson diagonalization with overlap
     ethr =  1.26E-05,  avg # of iterations =  9.0

     total cpu time spent up to now is       15.0 secs

     total energy              =    -923.91951474 Ry
     Harris-Foulkes estimate   =    -923.90763322 Ry
     estimated scf accuracy    <       0.00667373 Ry

     total magnetization       =     0.00 Bohr mag/cell
     absolute magnetization    =     2.71 Bohr mag/cell

     iteration #  7     ecut=    55.00 Ry     beta=0.70
     Davidson diagonalization with overlap
     ethr =  2.32E-06,  avg # of iterations =  4.0

     total cpu time spent up to now is       17.2 secs

     total energy              =    -923.92796079 Ry
     Harris-Foulkes estimate   =    -923.92792463 Ry
     estimated scf accuracy    <       0.00563322 Ry

     total magnetization       =    -0.00 Bohr mag/cell
     absolute magnetization    =     1.04 Bohr mag/cell

     iteration #  8     ecut=    55.00 Ry     beta=0.70
     Davidson diagonalization with overlap
     ethr =  1.96E-06,  avg # of iterations =  2.5

     total cpu time spent up to now is       18.5 secs

     total energy              =    -923.92892334 Ry
     Harris-Foulkes estimate   =    -923.92883882 Ry
     estimated scf accuracy    <       0.00113366 Ry

     total magnetization       =     0.00 Bohr mag/cell
     absolute magnetization    =     0.59 Bohr mag/cell

     iteration #  9     ecut=    55.00 Ry     beta=0.70
     Davidson diagonalization with overlap
     ethr =  3.94E-07,  avg # of iterations =  3.0

     total cpu time spent up to now is       20.1 secs

     total energy              =    -923.92944783 Ry
     Harris-Foulkes estimate   =    -923.92943189 Ry
     estimated scf accuracy    <       0.00009380 Ry

     total magnetization       =    -0.00 Bohr mag/cell
     absolute magnetization    =     0.20 Bohr mag/cell

     iteration # 10     ecut=    55.00 Ry     beta=0.70
     Davidson diagonalization with overlap
     ethr =  3.26E-08,  avg # of iterations =  3.0

     total cpu time spent up to now is       21.6 secs

     total energy              =    -923.92953746 Ry
     Harris-Foulkes estimate   =    -923.92954518 Ry
     estimated scf accuracy    <       0.00002190 Ry

     total magnetization       =     0.00 Bohr mag/cell
     absolute magnetization    =     0.02 Bohr mag/cell

     iteration # 11     ecut=    55.00 Ry     beta=0.70
     Davidson diagonalization with overlap
     ethr =  7.61E-09,  avg # of iterations =  3.0

     total cpu time spent up to now is       22.8 secs

     total energy              =    -923.92954291 Ry
     Harris-Foulkes estimate   =    -923.92954265 Ry
     estimated scf accuracy    <       0.00000103 Ry

     total magnetization       =     0.00 Bohr mag/cell
     absolute magnetization    =     0.01 Bohr mag/cell

     iteration # 12     ecut=    55.00 Ry     beta=0.70
     Davidson diagonalization with overlap
     ethr =  3.58E-10,  avg # of iterations =  3.5

     total cpu time spent up to now is       24.4 secs

     total energy              =    -923.92954349 Ry
     Harris-Foulkes estimate   =    -923.92954337 Ry
     estimated scf accuracy    <       0.00000022 Ry

     total magnetization       =    -0.00 Bohr mag/cell
     absolute magnetization    =     0.00 Bohr mag/cell

     iteration # 13     ecut=    55.00 Ry     beta=0.70
     Davidson diagonalization with overlap
     ethr =  7.62E-11,  avg # of iterations =  3.5

     total cpu time spent up to now is       25.7 secs

     total energy              =    -923.92954365 Ry
     Harris-Foulkes estimate   =    -923.92954357 Ry
     estimated scf accuracy    <       0.00000004 Ry

     total magnetization       =    -0.00 Bohr mag/cell
     absolute magnetization    =     0.00 Bohr mag/cell

     iteration # 14     ecut=    55.00 Ry     beta=0.70
     Davidson diagonalization with overlap
     ethr =  1.43E-11,  avg # of iterations =  4.0

     total cpu time spent up to now is       27.1 secs

     total energy              =    -923.92954369 Ry
     Harris-Foulkes estimate   =    -923.92954368 Ry
     estimated scf accuracy    <       0.00000002 Ry

     total magnetization       =     0.00 Bohr mag/cell
     absolute magnetization    =     0.00 Bohr mag/cell

     iteration # 15     ecut=    55.00 Ry     beta=0.70
     Davidson diagonalization with overlap
     ethr =  6.49E-12,  avg # of iterations =  4.0
 
     Magnetic moment per site:
     atom:    1    charge:    0.8571    magn:   -0.0000    constr:    0.0000
     atom:    2    charge:    0.8551    magn:   -0.0000    constr:    0.0000
     atom:    3    charge:    0.8551    magn:   -0.0000    constr:    0.0000
     atom:    4    charge:    0.8571    magn:   -0.0000    constr:    0.0000
     atom:    5    charge:    0.8581    magn:   -0.0000    constr:    0.0000
     atom:    6    charge:    0.8581    magn:   -0.0000    constr:    0.0000
     atom:    7    charge:    0.8596    magn:   -0.0000    constr:    0.0000
     atom:    8    charge:    0.8576    magn:   -0.0000    constr:    0.0000
     atom:    9    charge:    0.8528    magn:   -0.0000    constr:    0.0000
     atom:   10    charge:    0.8576    magn:   -0.0000    constr:    0.0000
     atom:   11    charge:    0.8596    magn:   -0.0000    constr:    0.0000
     atom:   12    charge:    0.8576    magn:   -0.0000    constr:    0.0000
     atom:   13    charge:    0.8593    magn:   -0.0000    constr:    0.0000
     atom:   14    charge:    0.8633    magn:   -0.0000    constr:    0.0000
     atom:   15    charge:    0.8639    magn:   -0.0000    constr:    0.0000
     atom:   16    charge:    0.8639    magn:   -0.0000    constr:    0.0000
     atom:   17    charge:    0.8633    magn:   -0.0000    constr:    0.0000
     atom:   18    charge:    0.8593    magn:   -0.0000    constr:    0.0000
     atom:   19    charge:    0.8554    magn:   -0.0000    constr:    0.0000
     atom:   20    charge:    0.8515    magn:   -0.0000    constr:    0.0000
     atom:   21    charge:    0.8463    magn:    0.0000    constr:    0.0000
     atom:   22    charge:    0.8463    magn:    0.0000    constr:    0.0000
     atom:   23    charge:    0.8515    magn:   -0.0000    constr:    0.0000
     atom:   24    charge:    0.8562    magn:   -0.0000    constr:    0.0000
     atom:   25    charge:    0.8562    magn:   -0.0000    constr:    0.0000
     atom:   26    charge:    0.8568    magn:   -0.0000    constr:    0.0000
     atom:   27    charge:    0.8603    magn:   -0.0000    constr:    0.0000
     atom:   28    charge:    0.8603    magn:   -0.0000    constr:    0.0000
     atom:   29    charge:    0.8568    magn:   -0.0000    constr:    0.0000
     atom:   30    charge:    0.8574    magn:   -0.0000    constr:    0.0000
     atom:   31    charge:    0.8563    magn:   -0.0000    constr:    0.0000
     atom:   32    charge:    0.8574    magn:   -0.0000    constr:    0.0000
     atom:   33    charge:    0.8562    magn:   -0.0000    constr:    0.0000
     atom:   34    charge:    0.8618    magn:   -0.0000    constr:    0.0000
     atom:   35    charge:    0.8562    magn:   -0.0000    constr:    0.0000
     atom:   36    charge:    2.6776    magn:    0.0000    constr:    0.0000
     atom:   37    charge:    2.6724    magn:    0.0000    constr:    0.0000
     atom:   38    charge:    2.6744    magn:    0.0000    constr:    0.0000
     atom:   39    charge:    2.6724    magn:    0.0000    constr:    0.0000
     atom:   40    charge:    2.6776    magn:    0.0000    constr:    0.0000
     atom:   41    charge:    2.6712    magn:    0.0000    constr:    0.0000
     atom:   42    charge:    2.6776    magn:    0.0000    constr:    0.0000
     atom:   43    charge:    2.6768    magn:    0.0000    constr:    0.0000
     atom:   44    charge:    2.6735    magn:    0.0000    constr:    0.0000
     atom:   45    charge:    2.6735    magn:    0.0000    constr:    0.0000
     atom:   46    charge:    2.6768    magn:    0.0000    constr:    0.0000
     atom:   47    charge:    2.6776    magn:    0.0000    constr:    0.0000
     atom:   48    charge:    2.6793    magn:    0.0000    constr:    0.0000
     atom:   49    charge:    2.6757    magn:    0.0000    constr:    0.0000
     atom:   50    charge:    2.6777    magn:    0.0000    constr:    0.0000
     atom:   51    charge:    2.6777    magn:    0.0000    constr:    0.0000
     atom:   52    charge:    2.6757    magn:    0.0000    constr:    0.0000
     atom:   53    charge:    2.6750    magn:    0.0000    constr:    0.0000
     atom:   54    charge:    2.6750    magn:    0.0000    constr:    0.0000
     atom:   55    charge:    2.6714    magn:    0.0000    constr:    0.0000
     atom:   56    charge:    2.6615    magn:   -0.0000    constr:    0.0000
     atom:   57    charge:    2.6615    magn:   -0.0000    constr:    0.0000
     atom:   58    charge:    2.6714    magn:    0.0000    constr:    0.0000
     atom:   59    charge:    2.6763    magn:    0.0000    constr:    0.0000
     atom:   60    charge:    2.6700    magn:    0.0000    constr:    0.0000
     atom:   61    charge:    2.6763    magn:    0.0000    constr:    0.0000
     atom:   62    charge:    2.6723    magn:    0.0000    constr:    0.0000
     atom:   63    charge:    2.6810    magn:    0.0000    constr:    0.0000
     atom:   64    charge:    2.6723    magn:    0.0000    constr:    0.0000
     atom:   65    charge:    2.6769    magn:    0.0000    constr:    0.0000
     atom:   66    charge:    2.6766    magn:    0.0000    constr:    0.0000
     atom:   67    charge:    2.6766    magn:    0.0000    constr:    0.0000
     atom:   68    charge:    2.6769    magn:    0.0000    constr:    0.0000
     atom:   69    charge:    2.6784    magn:    0.0000    constr:    0.0000
     atom:   70    charge:    2.6784    magn:    0.0000    constr:    0.0000
     atom:   71    charge:    1.5542    magn:    0.0001    constr:    0.0000
     atom:   72    charge:    1.6252    magn:   -0.0000    constr:    0.0000

     total cpu time spent up to now is       28.9 secs

     End of self-consistent calculation

 ------ SPIN UP ------------


          k = 0.0000 0.0000 0.0000 (144701 PWs)   bands (ev):

   -22.0898 -21.1825 -20.8812 -20.8079 -20.7534 -20.7259 -20.6114 -20.1369
   -20.0363 -19.8109 -19.8100 -19.7557 -19.6642 -19.4996 -19.4943 -19.3603
   -19.3397 -19.3235 -19.0757 -18.8132 -18.5060 -18.4459 -18.3845 -18.3441
   -18.3420 -18.3120 -18.2993 -18.2688 -18.2656 -18.2568 -18.2244 -18.1372
   -18.1145 -17.7329 -17.6520 -15.2825 -13.2665 -12.5533 -12.5411 -12.2450
   -12.1026 -11.8073 -11.8001 -11.7596 -11.7481 -11.7019 -11.6942 -11.6850
   -11.6545 -11.5742 -11.5729 -11.5538 -11.5022 -11.0152 -10.7992 -10.6971
   -10.6220 -10.5694 -10.4917 -10.4192 -10.3932  -9.7172  -9.4509  -9.2557
    -9.2279  -9.1759  -9.1614  -9.1438  -9.1186  -9.0457  -9.0390  -9.0110
    -9.0071  -9.0027  -8.9859  -8.9626  -8.9171  -8.8879  -8.7810  -8.5948
    -8.5263  -8.2412  -8.2034  -8.1556  -8.1217  -8.0815  -7.9953  -7.8570
    -7.8562  -7.7410  -7.6911  -7.6408  -7.6367  -7.5147  -7.5038  -7.3953
    -7.3203  -7.3063  -7.2538  -7.2134  -7.1362  -7.1266  -7.0109  -7.0097
    -6.9824  -6.9330  -6.9191  -6.8448  -6.8404  -6.8055  -6.7937  -6.6932
    -6.4629  -6.3808  -6.2889  -6.2327  -6.2143  -6.1876  -6.0467  -5.9774
    -5.9493  -5.9016  -5.8792  -5.7797  -5.3744  -5.0239  -4.9705  -4.9681
    -4.8093  -4.7807  -4.7400  -4.7277  -4.7094  -4.6910  -4.6535  -4.6519
    -4.6443  -4.5786  -4.5512  -4.5212  -4.4599  -3.9290  -3.6636  -3.0154
     0.2900   1.0334   1.0671   1.1218   1.1707   1.1930   1.4624   1.7121
     1.7746   1.7784   1.8218   1.8339   1.8787   1.8883   1.9004   1.9124
     1.9158   1.9202   1.9374   1.9694   1.9861   1.9892   2.0411   2.0869

     occupation numbers 
     1.0000   1.0000   1.0000   1.0000   1.0000   1.0000   1.0000   1.0000
     1.0000   1.0000   1.0000   1.0000   1.0000   1.0000   1.0000   1.0000
     1.0000   1.0000   1.0000   1.0000   1.0000   1.0000   1.0000   1.0000
     1.0000   1.0000   1.0000   1.0000   1.0000   1.0000   1.0000   1.0000
     1.0000   1.0000   1.0000   1.0000   1.0000   1.0000   1.0000   1.0000
     1.0000   1.0000   1.0000   1.0000   1.0000   1.0000   1.0000   1.0000
     1.0000   1.0000   1.0000   1.0000   1.0000   1.0000   1.0000   1.0000
     1.0000   1.0000   1.0000   1.0000   1.0000   1.0000   1.0000   1.0000
     1.0000   1.0000   1.0000   1.0000   1.0000   1.0000   1.0000   1.0000
     1.0000   1.0000   1.0000   1.0000   1.0000   1.0000   1.0000   1.0000
     1.0000   1.0000   1.0000   1.0000   1.0000   1.0000   1.0000   1.0000
     1.0000   1.0000   1.0000   1.0000   1.0000   1.0000   1.0000   1.0000
     1.0000   1.0000   1.0000   1.0000   1.0000   1.0000   1.0000   1.0000
     1.0000   1.0000   1.0000   1.0000   1.0000   1.0000   1.0000   1.0000
     1.0000   1.0000   1.0000   1.0000   1.0000   1.0000   1.0000   1.0000
     1.0000   1.0000   1.0000   1.0000   1.0000   1.0000   1.0000   1.0000
     1.0000   1.0000   1.0000   1.0000   1.0000   1.0000   1.0000   1.0000
     1.0000   1.0000   1.0000   1.0000   1.0000   1.0000   1.0000   1.0000
     0.0000   0.0000   0.0000   0.0000   0.0000   0.0000   0.0000   0.0000
     0.0000   0.0000   0.0000   0.0000   0.0000   0.0000   0.0000   0.0000
     0.0000   0.0000   0.0000   0.0000   0.0000   0.0000   0.0000   0.0000

 ------ SPIN DOWN ----------


          k = 0.0000 0.0000 0.0000 (144701 PWs)   bands (ev):

   -22.0897 -21.1825 -20.8812 -20.8079 -20.7534 -20.7259 -20.6114 -20.1369
   -20.0364 -19.8108 -19.8100 -19.7557 -19.6642 -19.4996 -19.4943 -19.3603
   -19.3397 -19.3235 -19.0757 -18.8132 -18.5060 -18.4459 -18.3845 -18.3441
   -18.3420 -18.3119 -18.2993 -18.2688 -18.2656 -18.2568 -18.2244 -18.1372
   -18.1145 -17.7329 -17.6520 -15.2825 -13.2665 -12.5533 -12.5411 -12.2450
   -12.1026 -11.8074 -11.8001 -11.7596 -11.7481 -11.7019 -11.6942 -11.6850
   -11.6545 -11.5742 -11.5729 -11.5538 -11.5022 -11.0153 -10.7992 -10.6971
   -10.6220 -10.5694 -10.4917 -10.4192 -10.3933  -9.7172  -9.4509  -9.2557
    -9.2279  -9.1759  -9.1614  -9.1438  -9.1186  -9.0457  -9.0390  -9.0109
    -9.0071  -9.0027  -8.9859  -8.9626  -8.9171  -8.8879  -8.7810  -8.5948
    -8.5262  -8.2412  -8.2034  -8.1556  -8.1217  -8.0815  -7.9953  -7.8570
    -7.8562  -7.7410  -7.6911  -7.6408  -7.6367  -7.5147  -7.5038  -7.3953
    -7.3203  -7.3063  -7.2538  -7.2134  -7.1361  -7.1265  -7.0109  -7.0097
    -6.9824  -6.9330  -6.9191  -6.8448  -6.8404  -6.8055  -6.7937  -6.6933
    -6.4629  -6.3807  -6.2889  -6.2327  -6.2143  -6.1876  -6.0466  -5.9774
    -5.9493  -5.9016  -5.8791  -5.7797  -5.3744  -5.0239  -4.9705  -4.9680
    -4.8093  -4.7807  -4.7399  -4.7277  -4.7094  -4.6910  -4.6535  -4.6519
    -4.6443  -4.5786  -4.5512  -4.5212  -4.4598  -3.9291  -3.6635  -3.0156
     0.2904   1.0334   1.0671   1.1217   1.1707   1.1929   1.4624   1.7121
     1.7746   1.7784   1.8218   1.8339   1.8787   1.8882   1.9003   1.9124
     1.9157   1.9201   1.9373   1.9690   1.9861   1.9892   2.0410   2.0742

     occupation numbers 
     1.0000   1.0000   1.0000   1.0000   1.0000   1.0000   1.0000   1.0000
     1.0000   1.0000   1.0000   1.0000   1.0000   1.0000   1.0000   1.0000
     1.0000   1.0000   1.0000   1.0000   1.0000   1.0000   1.0000   1.0000
     1.0000   1.0000   1.0000   1.0000   1.0000   1.0000   1.0000   1.0000
     1.0000   1.0000   1.0000   1.0000   1.0000   1.0000   1.0000   1.0000
     1.0000   1.0000   1.0000   1.0000   1.0000   1.0000   1.0000   1.0000
     1.0000   1.0000   1.0000   1.0000   1.0000   1.0000   1.0000   1.0000
     1.0000   1.0000   1.0000   1.0000   1.0000   1.0000   1.0000   1.0000
     1.0000   1.0000   1.0000   1.0000   1.0000   1.0000   1.0000   1.0000
     1.0000   1.0000   1.0000   1.0000   1.0000   1.0000   1.0000   1.0000
     1.0000   1.0000   1.0000   1.0000   1.0000   1.0000   1.0000   1.0000
     1.0000   1.0000   1.0000   1.0000   1.0000   1.0000   1.0000   1.0000
     1.0000   1.0000   1.0000   1.0000   1.0000   1.0000   1.0000   1.0000
     1.0000   1.0000   1.0000   1.0000   1.0000   1.0000   1.0000   1.0000
     1.0000   1.0000   1.0000   1.0000   1.0000   1.0000   1.0000   1.0000
     1.0000   1.0000   1.0000   1.0000   1.0000   1.0000   1.0000   1.0000
     1.0000   1.0000   1.0000   1.0000   1.0000   1.0000   1.0000   1.0000
     1.0000   1.0000   1.0000   1.0000   1.0000   1.0000   1.0000   1.0000
     0.0000   0.0000   0.0000   0.0000   0.0000   0.0000   0.0000   0.0000
     0.0000   0.0000   0.0000   0.0000   0.0000   0.0000   0.0000   0.0000
     0.0000   0.0000   0.0000   0.0000   0.0000   0.0000   0.0000   0.0000

     highest occupied, lowest unoccupied level (ev):    -3.0154    0.2900

!    total energy              =    -923.92954371 Ry
     Harris-Foulkes estimate   =    -923.92954371 Ry
     estimated scf accuracy    <          7.6E-09 Ry

     The total energy is the sum of the following terms:

     one-electron contribution =   -6004.59765100 Ry
     hartree contribution      =    3060.45749501 Ry
     xc contribution           =    -264.86867535 Ry
     ewald contribution        =    2285.07928765 Ry

     total magnetization       =    -0.00 Bohr mag/cell
     absolute magnetization    =     0.00 Bohr mag/cell

     convergence has been achieved in  15 iterations

     Writing output data file BN.save
 
     init_run     :      2.49s CPU      2.90s WALL (       1 calls)
     electrons    :     25.71s CPU     26.29s WALL (       1 calls)

     Called by init_run:
     wfcinit      :      0.52s CPU      0.55s WALL (       1 calls)
     wfcinit:atom :      0.00s CPU      0.01s WALL (       1 calls)
     wfcinit:wfcr :      0.49s CPU      0.51s WALL (       1 calls)
     potinit      :      0.48s CPU      0.49s WALL (       1 calls)

     Called by electrons:
     c_bands      :     23.10s CPU     23.43s WALL (      15 calls)
     sum_band     :      1.42s CPU      1.45s WALL (      15 calls)
     v_of_rho     :      0.74s CPU      0.75s WALL (      16 calls)
     v_h          :      0.03s CPU      0.03s WALL (      16 calls)
     v_xc         :      0.71s CPU      0.72s WALL (      16 calls)
     mix_rho      :      0.22s CPU      0.22s WALL (      15 calls)

     Called by c_bands:
     init_us_2    :      0.22s CPU      0.23s WALL (      31 calls)
     cegterg      :     21.60s CPU     21.92s WALL (      15 calls)

     Called by sum_band:

     Called by *egterg:
     h_psi        :     10.80s CPU     10.95s WALL (      95 calls)
     g_psi        :      0.05s CPU      0.05s WALL (      79 calls)
     cdiaghg      :      6.89s CPU      6.94s WALL (      94 calls)
     cegterg:over :      1.76s CPU      1.78s WALL (      79 calls)
     cegterg:upda :      1.03s CPU      1.04s WALL (      79 calls)
     cegterg:last :      0.40s CPU      0.40s WALL (      16 calls)

     Called by h_psi:
     h_psi:pot    :     10.62s CPU     10.76s WALL (      95 calls)
     h_psi:calbec :      1.59s CPU      1.61s WALL (      95 calls)
     vloc_psi     :      7.55s CPU      7.67s WALL (      95 calls)
     add_vuspsi   :      1.48s CPU      1.49s WALL (      95 calls)

     General routines
     calbec       :      1.59s CPU      1.61s WALL (      95 calls)
     fft          :      0.62s CPU      0.66s WALL (     333 calls)
     fftw         :      8.07s CPU      8.19s WALL (   18036 calls)
 
     Parallel routines
     fft_scatter  :      5.18s CPU      5.26s WALL (   18369 calls)
 
     PWSCF        :    30.89s CPU        33.43s WALL

 
   This run was terminated on:  22:58: 5  10Feb2021            

=------------------------------------------------------------------------------=
   JOB DONE.
=------------------------------------------------------------------------------=
