
                                 *****************
                                 * O   R   C   A *
                                 *****************

           --- An Ab Initio, DFT and Semiempirical electronic structure package ---

                  #######################################################
                  #                        -***-                        #
                  #          Department of theory and spectroscopy      #
                  #               Directorship: Frank Neese             #
                  #        Max Planck Institute fuer Kohlenforschung    #
                  #                Kaiser Wilhelm Platz 1               #
                  #                 D-45470 Muelheim/Ruhr               #
                  #                      Germany                        #
                  #                                                     #
                  #                  All rights reserved                #
                  #                        -***-                        #
                  #######################################################


                         Program Version 4.2.1 -  RELEASE  -


 With contributions from (in alphabetic order):
   Daniel Aravena         : Magnetic Suceptibility
   Michael Atanasov       : Ab Initio Ligand Field Theory (pilot matlab implementation)
   Alexander A. Auer      : GIAO ZORA, VPT2
   Ute Becker             : Parallelization
   Giovanni Bistoni       : ED, misc. LED, open-shell LED, HFLD
   Martin Brehm           : Molecular dynamics
   Dmytro Bykov           : SCF Hessian
   Vijay G. Chilkuri      : MRCI spin determinant printing, contributions to CSF-ICE
   Dipayan Datta          : RHF DLPNO-CCSD density
   Achintya Kumar Dutta   : EOM-CC, STEOM-CC
   Dmitry Ganyushin       : Spin-Orbit,Spin-Spin,Magnetic field MRCI
   Miquel Garcia          : C-PCM Hessian, Gaussian charge scheme
   Yang Guo               : DLPNO-NEVPT2, CIM, IAO-localization
   Andreas Hansen         : Spin unrestricted coupled pair/coupled cluster methods
   Benjamin Helmich-Paris : CASSCF linear response (MC-RPA)
   Lee Huntington         : MR-EOM, pCC
   Robert Izsak           : Overlap fitted RIJCOSX, COSX-SCS-MP3, EOM
   Christian Kollmar      : KDIIS, OOCD, Brueckner-CCSD(T), CCSD density
   Simone Kossmann        : Meta GGA functionals, TD-DFT gradient, OOMP2, MP2 Hessian
   Martin Krupicka        : AUTO-CI
   Lucas Lang             : DCDCAS
   Dagmar Lenk            : GEPOL surface, SMD
   Dimitrios Liakos       : Extrapolation schemes; Compound Job, initial MDCI parallelization
   Dimitrios Manganas     : Further ROCIS development; embedding schemes
   Dimitrios Pantazis     : SARC Basis sets
   Taras Petrenko         : DFT Hessian,TD-DFT gradient, ASA, ECA, R-Raman, ABS, FL, XAS/XES, NRVS
   Peter Pinski           : DLPNO-MP2, DLPNO-MP2 Gradient
   Christoph Reimann      : Effective Core Potentials
   Marius Retegan         : Local ZFS, SOC
   Christoph Riplinger    : Optimizer, TS searches, QM/MM, DLPNO-CCSD(T), (RO)-DLPNO pert. Triples
   Tobias Risthaus        : Range-separated hybrids, TD-DFT gradient, RPA, STAB
   Michael Roemelt        : Original ROCIS implementation
   Masaaki Saitow         : Open-shell DLPNO-CCSD energy and density
   Barbara Sandhoefer     : DKH picture change effects
   Avijit Sen             : IP-ROCIS
   Kantharuban Sivalingam : CASSCF convergence, NEVPT2, FIC-MRCI
   Bernardo de Souza      : ESD, SOC TD-DFT
   Georgi Stoychev        : AutoAux, RI-MP2 NMR
   Willem Van den Heuvel  : Paramagnetic NMR
   Boris Wezisla          : Elementary symmetry handling
   Frank Wennmohs         : Technical directorship


 We gratefully acknowledge several colleagues who have allowed us to
 interface, adapt or use parts of their codes:
   Stefan Grimme, W. Hujo, H. Kruse,             : VdW corrections, initial TS optimization,
                  C. Bannwarth                     DFT functionals, gCP, sTDA/sTD-DF
   Ed Valeev, F. Pavosevic, A. Kumar             : LibInt (2-el integral package), F12 methods
   Garnet Chan, S. Sharma, J. Yang, R. Olivares  : DMRG
   Ulf Ekstrom                                   : XCFun DFT Library
   Mihaly Kallay                                 : mrcc  (arbitrary order and MRCC methods)
   Andreas Klamt, Michael Diedenhofen            : otool_cosmo (COSMO solvation model)
   Jiri Pittner, Ondrej Demel                    : Mk-CCSD
   Frank Weinhold                                : gennbo (NPA and NBO analysis)
   Christopher J. Cramer and Donald G. Truhlar   : smd solvation model
   Lars Goerigk                                  : TD-DFT with DH, B97 family of functionals
   V. Asgeirsson, H. Jonsson                     : NEB implementation
   FAccTs GmbH                                   : IRC, NEB, NEB-TS, Multilevel, MM, QM/MM, CI optimization
   S Lehtola, MJT Oliveira, MAL Marques          : LibXC Library


 Your calculation uses the libint2 library for the computation of 2-el integrals
 For citations please refer to: http://libint.valeyev.net

 Your ORCA version has been built with support for libXC version: 4.2.3
 For citations please refer to: https://tddft.org/programs/libxc/

 This ORCA versions uses:
   CBLAS   interface :  Fast vector & matrix operations
   LAPACKE interface :  Fast linear algebra routines
   SCALAPACK package :  Parallel linear algebra routines




***************************************
The coordinates will be read from file: nv.xyz
***************************************


----- Orbital basis set information -----
Your calculation utilizes the basis: EPR-II
   V. Barone, in Recent Advances in Density Functional Methods, Part 1 (ed. D. P. Chong), World Scientific, Singapore, 1995, p. 287.

----- AuxJ basis set information -----
Your calculation utilizes the AutoAux generation procedure.
  G. L. Stoychev, A. A. Auer, F. Neese, J. Chem. Theory Comput. 13, 554 (2017)

----- AuxC basis set information -----
Your calculation utilizes the AutoAux generation procedure.
  G. L. Stoychev, A. A. Auer, F. Neese, J. Chem. Theory Comput. 13, 554 (2017)

----- AuxJK basis set information -----
Your calculation utilizes the AutoAux generation procedure.
  G. L. Stoychev, A. A. Auer, F. Neese, J. Chem. Theory Comput. 13, 554 (2017)

================================================================================
                                        WARNINGS
                       Please study these warnings very carefully!
================================================================================


WARNING: your system is open-shell and RHF/RKS was chosen
  ===> : WILL SWITCH to UHF/UKS


INFO   : the flag for use of LIBINT has been found!

================================================================================
                                       INPUT FILE
================================================================================
NAME = zfs.in
|  1> # Use EPR-II is a special basis set for epr, autoaux creates a large auxiliary basis
|  2> !PBE EPR-II AUTOAUX RIJCOSX
|  3> 
|  4> # use original (unoptimized) cluster xyz
|  5> *xyzfile -1 3 nv.xyz
|  6> 
|  7> # Parallelization
|  8> %PAL NPROCS 72 END
|  9> 
| 10> # ZFS calculation
| 11> %EPRNMR DTENSOR SSANDSO
| 12>     DSS     UNO
| 13>     DSOC    CP
| 14> END
| 15> 
| 16>                          ****END OF INPUT****
================================================================================

                       ****************************
                       * Single Point Calculation *
                       ****************************

---------------------------------
CARTESIAN COORDINATES (ANGSTROEM)
---------------------------------
  C      1.221435   -0.937277   -2.249811
  C     -0.189937   -1.443188   -4.258023
  C      2.682479    1.111003   -2.199697
  C     -2.303358    1.767507   -2.199804
  C     -0.378989   -2.878604   -2.199700
  C      1.517035    1.988862   -0.144983
  C     -1.528540   -1.980033   -0.144986
  C     -0.950484    2.313770   -0.145035
  C      0.963895   -2.308221   -0.144933
  C      2.479033   -0.333742   -0.144931
  C     -2.480921    0.319353   -0.145037
  C     -0.185630   -1.409705    0.395617
  C     -1.128043    0.865614    0.395566
  C      1.313649    0.544108    0.395618
  C      0.190568    1.446653   -3.737621
  C      1.157713   -0.888377   -3.737569
  C     -1.348056   -0.558434   -3.737623
  C      1.517123    1.987754   -1.693673
  C     -1.527445   -1.979829   -1.693676
  C     -0.950789    2.312713   -1.693726
  C      0.962957   -2.307749   -1.693623
  C      2.478336   -0.332956   -1.693621
  C     -2.479978    0.319923   -1.693727
  C      0.201029    1.526345   -2.249865
  C     -1.422329   -0.589163   -2.249867
  C      1.344882    0.556940   -4.258021
  C     -1.154690    0.886067   -4.258075
  N      0.000000    0.000000    0.000000
  H     -0.321939   -2.445621   -3.907906
  H     -0.188980   -1.436095   -5.328003
  H      2.698719    1.117706   -3.269544
  H      3.611214    1.495683   -1.833101
  H     -3.098951    2.378012   -1.826663
  H     -2.322828    1.782448   -3.269519
  H     -0.381259   -2.896023   -3.269548
  H     -0.510229   -3.875249   -1.833106
  H      0.722526    2.612850    0.207581
  H      2.457667    2.361685    0.203028
  H     -1.653933   -2.982378    0.207839
  H     -2.332801   -1.365925    0.202756
  H     -1.755859    2.923537    0.207753
  H     -0.016534    2.703227    0.202744
  H      1.901524   -1.932150    0.207668
  H      0.816438   -3.309242    0.203076
  H      3.409780    0.058850    0.207895
  H      2.349323   -1.337293    0.202848
  H     -2.624063   -0.680692    0.207562
  H     -3.274118    0.947566    0.202936
  H     -0.187282   -1.422076    1.465539
  H     -1.137975    0.873235    1.465488
  H      1.325170    0.548903    1.465541
  H      0.321765    2.442966   -4.105093
  H      1.954964   -1.500155   -4.105005
  H     -2.276482   -0.942985   -4.105096
  H      1.656632    2.990604   -2.039696
  H     -2.460032   -2.374102   -2.039701
  H     -0.825932    3.317492   -2.039749
  H      1.761710   -2.929994   -2.039611
  H      3.286086   -0.943476   -2.039609
  H     -3.418220   -0.060696   -2.039752
  H      1.338492    0.554269   -5.328007
  H      2.278951    0.943828   -3.907684
  H     -1.956837    1.501603   -3.907994
  H     -1.148981    0.881688   -5.328055

----------------------------
CARTESIAN COORDINATES (A.U.)
----------------------------
  NO LB      ZA    FRAG     MASS         X           Y           Z
   0 C     6.0000    0    12.011    2.308178   -1.771198   -4.251526
   1 C     6.0000    0    12.011   -0.358929   -2.727229   -8.046497
   2 C     6.0000    0    12.011    5.069151    2.099492   -4.156825
   3 C     6.0000    0    12.011   -4.352716    3.340104   -4.157026
   4 C     6.0000    0    12.011   -0.716185   -5.439772   -4.156831
   5 C     6.0000    0    12.011    2.866781    3.758405   -0.273977
   6 C     6.0000    0    12.011   -2.888522   -3.741721   -0.273984
   7 C     6.0000    0    12.011   -1.796155    4.372391   -0.274077
   8 C     6.0000    0    12.011    1.821497   -4.361906   -0.273883
   9 C     6.0000    0    12.011    4.684693   -0.630681   -0.273880
  10 C     6.0000    0    12.011   -4.688262    0.603490   -0.274081
  11 C     6.0000    0    12.011   -0.350790   -2.663957    0.747607
  12 C     6.0000    0    12.011   -2.131693    1.635774    0.747512
  13 C     6.0000    0    12.011    2.482438    1.028215    0.747611
  14 C     6.0000    0    12.011    0.360122    2.733777   -7.063080
  15 C     6.0000    0    12.011    2.187760   -1.678790   -7.062982
  16 C     6.0000    0    12.011   -2.547457   -1.055287   -7.063084
  17 C     6.0000    0    12.011    2.866946    3.756311   -3.200578
  18 C     6.0000    0    12.011   -2.886453   -3.741335   -3.200585
  19 C     6.0000    0    12.011   -1.796731    4.370394   -3.200678
  20 C     6.0000    0    12.011    1.819725   -4.361014   -3.200484
  21 C     6.0000    0    12.011    4.683376   -0.629195   -3.200481
  22 C     6.0000    0    12.011   -4.686479    0.604568   -3.200681
  23 C     6.0000    0    12.011    0.379890    2.884375   -4.251629
  24 C     6.0000    0    12.011   -2.687813   -1.113357   -4.251633
  25 C     6.0000    0    12.011    2.541459    1.052463   -8.046494
  26 C     6.0000    0    12.011   -2.182047    1.674425   -8.046595
  27 N     7.0000    0    14.007    0.000000    0.000000    0.000000
  28 H     1.0000    0     1.008   -0.608377   -4.621555   -7.384872
  29 H     1.0000    0     1.008   -0.357120   -2.713827  -10.068467
  30 H     1.0000    0     1.008    5.099840    2.112158   -6.178543
  31 H     1.0000    0     1.008    6.824205    2.826431   -3.464060
  32 H     1.0000    0     1.008   -5.856169    4.493792   -3.451893
  33 H     1.0000    0     1.008   -4.389509    3.368339   -6.178495
  34 H     1.0000    0     1.008   -0.720476   -5.472690   -6.178550
  35 H     1.0000    0     1.008   -0.964193   -7.323160   -3.464069
  36 H     1.0000    0     1.008    1.365377    4.937571    0.392271
  37 H     1.0000    0     1.008    4.644318    4.462938    0.383668
  38 H     1.0000    0     1.008   -3.125481   -5.635878    0.392758
  39 H     1.0000    0     1.008   -4.408355   -2.581223    0.383154
  40 H     1.0000    0     1.008   -3.318093    5.524684    0.392597
  41 H     1.0000    0     1.008   -0.031245    5.108358    0.383131
  42 H     1.0000    0     1.008    3.593360   -3.651234    0.392436
  43 H     1.0000    0     1.008    1.542845   -6.253562    0.383759
  44 H     1.0000    0     1.008    6.443550    0.111211    0.392864
  45 H     1.0000    0     1.008    4.439577   -2.527118    0.383326
  46 H     1.0000    0     1.008   -4.958760   -1.286321    0.392235
  47 H     1.0000    0     1.008   -6.187186    1.790640    0.383494
  48 H     1.0000    0     1.008   -0.353912   -2.687333    2.769468
  49 H     1.0000    0     1.008   -2.150462    1.650174    2.769372
  50 H     1.0000    0     1.008    2.504208    1.037277    2.769471
  51 H     1.0000    0     1.008    0.608047    4.616537   -7.757501
  52 H     1.0000    0     1.008    3.694346   -2.834882   -7.757336
  53 H     1.0000    0     1.008   -4.301927   -1.781984   -7.757507
  54 H     1.0000    0     1.008    3.130582    5.651422   -3.854467
  55 H     1.0000    0     1.008   -4.648788   -4.486403   -3.854476
  56 H     1.0000    0     1.008   -1.560785    6.269151   -3.854568
  57 H     1.0000    0     1.008    3.329150   -5.536887   -3.854305
  58 H     1.0000    0     1.008    6.209803   -1.782912   -3.854302
  59 H     1.0000    0     1.008   -6.459501   -0.114698   -3.854573
  60 H     1.0000    0     1.008    2.529382    1.047416  -10.068475
  61 H     1.0000    0     1.008    4.306592    1.783577   -7.384452
  62 H     1.0000    0     1.008   -3.697886    2.837618   -7.385038
  63 H     1.0000    0     1.008   -2.171259    1.666149  -10.068564

--------------------------------
INTERNAL COORDINATES (ANGSTROEM)
--------------------------------
 C      0   0   0     0.000000000000     0.00000000     0.00000000
 C      1   0   0     2.506159188452     0.00000000     0.00000000
 C      1   2   0     2.516468737843   120.47980032     0.00000000
 C      2   1   3     4.360203421074    75.28951498   283.77948097
 C      1   2   3     2.516468891313    60.13666440   174.71907255
 C      3   1   2     2.520068779763    91.79194712   121.28833101
 C      5   1   2     2.520068763036    91.79201994   236.05607765
 C      6   3   1     2.488818368309   120.26272268   304.19020215
 C      7   5   1     2.513948947864    60.08027953   306.41229828
 C      9   7   5     2.488817352207   120.00002881   109.82545099
 C      7   5   1     2.488816777036   120.26270159    55.80983232
 C      7   5   1     1.555934702795    91.16206222   325.68709313
 C      8   6   3     1.555934051926    89.52038816    91.06561729
 C      6   3   1     1.555934061812    91.16212212    34.31292441
 C      3   1   2     2.947455098963    65.88562639    32.41919377
 C      1   2   3     1.489925410464    35.15414078   323.08151364
 C      2   1   3     1.547529031156    92.09616882   273.73521377
 C      3   1   2     1.543634497472    91.74891421    85.78589530
 C      5   1   2     1.543634475618    91.74900367   271.55851522
 C      4   2   1     1.543634426738    89.43441785    30.89183770
 C      1   2   3     1.501448810719    90.89532350   191.81515947
 C      1   2   3     1.501449344697   148.15946931   329.09681942
 C      4   2   1     1.543633745985    61.29331668   278.87882690
 C     15   3   1     1.489925437916    58.60967737    79.25168918
 C     17   2   1     1.489925476680   111.18022711   326.95804088
 C     16   1   2     1.547528289403   111.18021293   121.75553494
 C     17   2   1     1.547528291816   109.09004218    89.92306830
 N     12   7   5     1.475886138748   111.44049749    93.52608412
 H      2   1   3     1.069990716759    89.79352602   164.26253078
 H      2   1   3     1.070004294790   143.07770566    40.86734299
 H      3   1   2     1.069991509765    89.65616664   336.17389652
 H      3   1   2     1.070008907082   143.45442867   213.40182390
 H      4   2   1     1.070008629921   160.93593856   213.27452136
 H      4   2   1     1.069996784563    63.07524134   143.53512794
 H     29   2   1     0.783506147851   144.53757489    32.14134799
 H      5   1   2     1.070008457327   143.45441157   143.94258785
 H      6   3   1     1.070002931830   144.60622173   267.56155993
 H      6   3   1     1.069998800977    88.85452192   143.28877490
 H      7   5   1     1.070001689996    89.32902230   216.43024002
 H      7   5   1     1.069995564374   144.34073003    91.60649888
 H      8   6   3     1.070002207165   145.14813577   215.49452431
 H     37   6   3     0.744581472742   143.67474248    62.06104363
 H      9   7   5     1.070002897732   145.37732656   145.27378867
 H      9   7   5     1.069998337385    89.16959387   270.84373779
 H     10   9   7     1.070002154035   145.14812967   144.76011292
 H     43   9   7     0.744581167106   143.67473622   300.54055370
 H     40   7   5     0.744581002506   145.51897272   298.58473539
 H     11   7   5     1.069998827421   145.69948104   144.51454589
 H     12   7   5     1.069995472812   109.98972403   211.05044889
 H     13   8   6     1.069995477084   109.98975807    90.79100385
 H     14   6   3     1.069995466059   109.98975813   148.94952880
 H     15   3   1     1.069995020081   100.46116416   182.87308407
 H     16   1   2     1.069995530461   106.99377716   240.87773467
 H     17   2   1     1.069995470749   109.17096222   209.14698708
 H     18   3   1     1.070001083247   109.14081205   209.46733767
 H     19   5   1     1.070001544359   109.14088148   150.53266270
 H     20   4   2     1.070001076493   109.14085337   120.92648834
 H     21   1   2     1.070001584236   106.41034513    92.35939568
 H     22   1   2     1.070001596461   106.41041635   291.94871441
 H     23   4   2     1.070001548522   109.14085330   258.30749266
 H     26  16   1     1.070008557446   109.46621824   177.47400824
 H     31   3   1     0.783365299560   143.60830346    31.99437329
 H     34   4   2     0.787701494302   142.83583390   341.07939140
 H     27  17   2     1.070004297025   109.46009780    59.54970991

---------------------------
INTERNAL COORDINATES (A.U.)
---------------------------
 C      0   0   0     0.000000000000     0.00000000     0.00000000
 C      1   0   0     4.735954514185     0.00000000     0.00000000
 C      1   2   0     4.755436739098   120.47980032     0.00000000
 C      2   1   3     8.239590354016    75.28951498   283.77948097
 C      1   2   3     4.755437029115    60.13666440   174.71907255
 C      3   1   2     4.762239832396    91.79194712   121.28833101
 C      5   1   2     4.762239800789    91.79201994   236.05607765
 C      6   3   1     4.703185113177   120.26272268   304.19020215
 C      7   5   1     4.750675026122    60.08027953   306.41229828
 C      9   7   5     4.703183193021   120.00002881   109.82545099
 C      7   5   1     4.703182106107   120.26270159    55.80983232
 C      7   5   1     2.940290470547    91.16206222   325.68709313
 C      8   6   3     2.940289240583    89.52038816    91.06561729
 C      6   3   1     2.940289259264    91.16212212    34.31292441
 C      3   1   2     5.569882929070    65.88562639    32.41919377
 C      1   2   3     2.815550985746    35.15414078   323.08151364
 C      2   1   3     2.924406053177    92.09616882   273.73521377
 C      3   1   2     2.917046451096    91.74891421    85.78589530
 C      5   1   2     2.917046409798    91.74900367   271.55851522
 C      4   2   1     2.917046317427    89.43441785    30.89183770
 C      1   2   3     2.837327056360    90.89532350   191.81515947
 C      1   2   3     2.837328065433   148.15946931   329.09681942
 C      4   2   1     2.917045030991    61.29331668   278.87882690
 C     15   3   1     2.815551037624    58.60967737    79.25168918
 C     17   2   1     2.815551110877   111.18022711   326.95804088
 C     16   1   2     2.924404651467   111.18021293   121.75553494
 C     17   2   1     2.924404656027   109.09004218    89.92306830
 N     12   7   5     2.789020607085   111.44049749    93.52608412
 H      2   1   3     2.021989420513    89.79352602   164.26253078
 H      2   1   3     2.022015079273   143.07770566    40.86734299
 H      3   1   2     2.021990919077    89.65616664   336.17389652
 H      3   1   2     2.022023795241   143.45442867   213.40182390
 H      4   2   1     2.022023271482   160.93593856   213.27452136
 H      4   2   1     2.022000887000    63.07524134   143.53512794
 H     29   2   1     1.480612043682   144.53757489    32.14134799
 H      5   1   2     2.022022945327   143.45441157   143.94258785
 H      6   3   1     2.022012503652   144.60622173   267.56155993
 H      6   3   1     2.022004697470    88.85452192   143.28877490
 H      7   5   1     2.022010156925    89.32902230   216.43024002
 H      7   5   1     2.021998581178   144.34073003    91.60649888
 H      8   6   3     2.022011134233   145.14813577   215.49452431
 H     37   6   3     1.407055067874   143.67474248    62.06104363
 H      9   7   5     2.022012439215   145.37732656   145.27378867
 H      9   7   5     2.022003821409    89.16959387   270.84373779
 H     10   9   7     2.022011033832   145.14812967   144.76011292
 H     43   9   7     1.407054490306   143.67473622   300.54055370
 H     40   7   5     1.407054179257   145.51897272   298.58473539
 H     11   7   5     2.022004747442   145.69948104   144.51454589
 H     12   7   5     2.021998408150   109.98972403   211.05044889
 H     13   8   6     2.021998416223   109.98975807    90.79100385
 H     14   6   3     2.021998395389   109.98975813   148.94952880
 H     15   3   1     2.021997552613   100.46116416   182.87308407
 H     16   1   2     2.021998517091   106.99377716   240.87773467
 H     17   2   1     2.021998404252   109.17096222   209.14698708
 H     18   3   1     2.022009010335   109.14081205   209.46733767
 H     19   5   1     2.022009881712   109.14088148   150.53266270
 H     20   4   2     2.022008997572   109.14085337   120.92648834
 H     21   1   2     2.022009957068   106.41034513    92.35939568
 H     22   1   2     2.022009980170   106.41041635   291.94871441
 H     23   4   2     2.022009889577   109.14085330   258.30749266
 H     26  16   1     2.022023134526   109.46621824   177.47400824
 H     31   3   1     1.480345878985   143.60830346    31.99437329
 H     34   4   2     1.488540099512   142.83583390   341.07939140
 H     27  17   2     2.022015083497   109.46009780    59.54970991

---------------------
BASIS SET INFORMATION
---------------------
There are 3 groups of distinct atoms

 Group   1 Type C   : 10s5p1d contracted to 6s2p1d pattern {511111/41/1}
 Group   2 Type N   : 10s5p1d contracted to 6s2p1d pattern {511111/41/1}
 Group   3 Type H   : 6s1p contracted to 4s1p pattern {3111/1}

Atom   0C    basis set group =>   1
Atom   1C    basis set group =>   1
Atom   2C    basis set group =>   1
Atom   3C    basis set group =>   1
Atom   4C    basis set group =>   1
Atom   5C    basis set group =>   1
Atom   6C    basis set group =>   1
Atom   7C    basis set group =>   1
Atom   8C    basis set group =>   1
Atom   9C    basis set group =>   1
Atom  10C    basis set group =>   1
Atom  11C    basis set group =>   1
Atom  12C    basis set group =>   1
Atom  13C    basis set group =>   1
Atom  14C    basis set group =>   1
Atom  15C    basis set group =>   1
Atom  16C    basis set group =>   1
Atom  17C    basis set group =>   1
Atom  18C    basis set group =>   1
Atom  19C    basis set group =>   1
Atom  20C    basis set group =>   1
Atom  21C    basis set group =>   1
Atom  22C    basis set group =>   1
Atom  23C    basis set group =>   1
Atom  24C    basis set group =>   1
Atom  25C    basis set group =>   1
Atom  26C    basis set group =>   1
Atom  27N    basis set group =>   2
Atom  28H    basis set group =>   3
Atom  29H    basis set group =>   3
Atom  30H    basis set group =>   3
Atom  31H    basis set group =>   3
Atom  32H    basis set group =>   3
Atom  33H    basis set group =>   3
Atom  34H    basis set group =>   3
Atom  35H    basis set group =>   3
Atom  36H    basis set group =>   3
Atom  37H    basis set group =>   3
Atom  38H    basis set group =>   3
Atom  39H    basis set group =>   3
Atom  40H    basis set group =>   3
Atom  41H    basis set group =>   3
Atom  42H    basis set group =>   3
Atom  43H    basis set group =>   3
Atom  44H    basis set group =>   3
Atom  45H    basis set group =>   3
Atom  46H    basis set group =>   3
Atom  47H    basis set group =>   3
Atom  48H    basis set group =>   3
Atom  49H    basis set group =>   3
Atom  50H    basis set group =>   3
Atom  51H    basis set group =>   3
Atom  52H    basis set group =>   3
Atom  53H    basis set group =>   3
Atom  54H    basis set group =>   3
Atom  55H    basis set group =>   3
Atom  56H    basis set group =>   3
Atom  57H    basis set group =>   3
Atom  58H    basis set group =>   3
Atom  59H    basis set group =>   3
Atom  60H    basis set group =>   3
Atom  61H    basis set group =>   3
Atom  62H    basis set group =>   3
Atom  63H    basis set group =>   3
---------------------------------
AUXILIARY/J BASIS SET INFORMATION
---------------------------------
There are 3 groups of distinct atoms

 Group   1 Type C   : 17s13p12d2f contracted to 17s13p12d2f pattern {11111111111111111/1111111111111/111111111111/11}
 Group   2 Type N   : 17s13p12d2f contracted to 17s13p12d2f pattern {11111111111111111/1111111111111/111111111111/11}
 Group   3 Type H   : 15s6p1d contracted to 15s6p1d pattern {111111111111111/111111/1}

Atom   0C    basis set group =>   1
Atom   1C    basis set group =>   1
Atom   2C    basis set group =>   1
Atom   3C    basis set group =>   1
Atom   4C    basis set group =>   1
Atom   5C    basis set group =>   1
Atom   6C    basis set group =>   1
Atom   7C    basis set group =>   1
Atom   8C    basis set group =>   1
Atom   9C    basis set group =>   1
Atom  10C    basis set group =>   1
Atom  11C    basis set group =>   1
Atom  12C    basis set group =>   1
Atom  13C    basis set group =>   1
Atom  14C    basis set group =>   1
Atom  15C    basis set group =>   1
Atom  16C    basis set group =>   1
Atom  17C    basis set group =>   1
Atom  18C    basis set group =>   1
Atom  19C    basis set group =>   1
Atom  20C    basis set group =>   1
Atom  21C    basis set group =>   1
Atom  22C    basis set group =>   1
Atom  23C    basis set group =>   1
Atom  24C    basis set group =>   1
Atom  25C    basis set group =>   1
Atom  26C    basis set group =>   1
Atom  27N    basis set group =>   2
Atom  28H    basis set group =>   3
Atom  29H    basis set group =>   3
Atom  30H    basis set group =>   3
Atom  31H    basis set group =>   3
Atom  32H    basis set group =>   3
Atom  33H    basis set group =>   3
Atom  34H    basis set group =>   3
Atom  35H    basis set group =>   3
Atom  36H    basis set group =>   3
Atom  37H    basis set group =>   3
Atom  38H    basis set group =>   3
Atom  39H    basis set group =>   3
Atom  40H    basis set group =>   3
Atom  41H    basis set group =>   3
Atom  42H    basis set group =>   3
Atom  43H    basis set group =>   3
Atom  44H    basis set group =>   3
Atom  45H    basis set group =>   3
Atom  46H    basis set group =>   3
Atom  47H    basis set group =>   3
Atom  48H    basis set group =>   3
Atom  49H    basis set group =>   3
Atom  50H    basis set group =>   3
Atom  51H    basis set group =>   3
Atom  52H    basis set group =>   3
Atom  53H    basis set group =>   3
Atom  54H    basis set group =>   3
Atom  55H    basis set group =>   3
Atom  56H    basis set group =>   3
Atom  57H    basis set group =>   3
Atom  58H    basis set group =>   3
Atom  59H    basis set group =>   3
Atom  60H    basis set group =>   3
Atom  61H    basis set group =>   3
Atom  62H    basis set group =>   3
Atom  63H    basis set group =>   3
---------------------------------
AUXILIARY/C BASIS SET INFORMATION
---------------------------------
There are 3 groups of distinct atoms

 Group   1 Type C   : 17s13p12d2f contracted to 17s13p12d2f pattern {11111111111111111/1111111111111/111111111111/11}
 Group   2 Type N   : 17s13p12d2f contracted to 17s13p12d2f pattern {11111111111111111/1111111111111/111111111111/11}
 Group   3 Type H   : 15s6p1d contracted to 15s6p1d pattern {111111111111111/111111/1}

Atom   0C    basis set group =>   1
Atom   1C    basis set group =>   1
Atom   2C    basis set group =>   1
Atom   3C    basis set group =>   1
Atom   4C    basis set group =>   1
Atom   5C    basis set group =>   1
Atom   6C    basis set group =>   1
Atom   7C    basis set group =>   1
Atom   8C    basis set group =>   1
Atom   9C    basis set group =>   1
Atom  10C    basis set group =>   1
Atom  11C    basis set group =>   1
Atom  12C    basis set group =>   1
Atom  13C    basis set group =>   1
Atom  14C    basis set group =>   1
Atom  15C    basis set group =>   1
Atom  16C    basis set group =>   1
Atom  17C    basis set group =>   1
Atom  18C    basis set group =>   1
Atom  19C    basis set group =>   1
Atom  20C    basis set group =>   1
Atom  21C    basis set group =>   1
Atom  22C    basis set group =>   1
Atom  23C    basis set group =>   1
Atom  24C    basis set group =>   1
Atom  25C    basis set group =>   1
Atom  26C    basis set group =>   1
Atom  27N    basis set group =>   2
Atom  28H    basis set group =>   3
Atom  29H    basis set group =>   3
Atom  30H    basis set group =>   3
Atom  31H    basis set group =>   3
Atom  32H    basis set group =>   3
Atom  33H    basis set group =>   3
Atom  34H    basis set group =>   3
Atom  35H    basis set group =>   3
Atom  36H    basis set group =>   3
Atom  37H    basis set group =>   3
Atom  38H    basis set group =>   3
Atom  39H    basis set group =>   3
Atom  40H    basis set group =>   3
Atom  41H    basis set group =>   3
Atom  42H    basis set group =>   3
Atom  43H    basis set group =>   3
Atom  44H    basis set group =>   3
Atom  45H    basis set group =>   3
Atom  46H    basis set group =>   3
Atom  47H    basis set group =>   3
Atom  48H    basis set group =>   3
Atom  49H    basis set group =>   3
Atom  50H    basis set group =>   3
Atom  51H    basis set group =>   3
Atom  52H    basis set group =>   3
Atom  53H    basis set group =>   3
Atom  54H    basis set group =>   3
Atom  55H    basis set group =>   3
Atom  56H    basis set group =>   3
Atom  57H    basis set group =>   3
Atom  58H    basis set group =>   3
Atom  59H    basis set group =>   3
Atom  60H    basis set group =>   3
Atom  61H    basis set group =>   3
Atom  62H    basis set group =>   3
Atom  63H    basis set group =>   3
----------------------------------
AUXILIARY/JK BASIS SET INFORMATION
----------------------------------
There are 3 groups of distinct atoms

 Group   1 Type C   : 17s13p12d2f contracted to 17s13p12d2f pattern {11111111111111111/1111111111111/111111111111/11}
 Group   2 Type N   : 17s13p12d2f contracted to 17s13p12d2f pattern {11111111111111111/1111111111111/111111111111/11}
 Group   3 Type H   : 15s6p1d contracted to 15s6p1d pattern {111111111111111/111111/1}

Atom   0C    basis set group =>   1
Atom   1C    basis set group =>   1
Atom   2C    basis set group =>   1
Atom   3C    basis set group =>   1
Atom   4C    basis set group =>   1
Atom   5C    basis set group =>   1
Atom   6C    basis set group =>   1
Atom   7C    basis set group =>   1
Atom   8C    basis set group =>   1
Atom   9C    basis set group =>   1
Atom  10C    basis set group =>   1
Atom  11C    basis set group =>   1
Atom  12C    basis set group =>   1
Atom  13C    basis set group =>   1
Atom  14C    basis set group =>   1
Atom  15C    basis set group =>   1
Atom  16C    basis set group =>   1
Atom  17C    basis set group =>   1
Atom  18C    basis set group =>   1
Atom  19C    basis set group =>   1
Atom  20C    basis set group =>   1
Atom  21C    basis set group =>   1
Atom  22C    basis set group =>   1
Atom  23C    basis set group =>   1
Atom  24C    basis set group =>   1
Atom  25C    basis set group =>   1
Atom  26C    basis set group =>   1
Atom  27N    basis set group =>   2
Atom  28H    basis set group =>   3
Atom  29H    basis set group =>   3
Atom  30H    basis set group =>   3
Atom  31H    basis set group =>   3
Atom  32H    basis set group =>   3
Atom  33H    basis set group =>   3
Atom  34H    basis set group =>   3
Atom  35H    basis set group =>   3
Atom  36H    basis set group =>   3
Atom  37H    basis set group =>   3
Atom  38H    basis set group =>   3
Atom  39H    basis set group =>   3
Atom  40H    basis set group =>   3
Atom  41H    basis set group =>   3
Atom  42H    basis set group =>   3
Atom  43H    basis set group =>   3
Atom  44H    basis set group =>   3
Atom  45H    basis set group =>   3
Atom  46H    basis set group =>   3
Atom  47H    basis set group =>   3
Atom  48H    basis set group =>   3
Atom  49H    basis set group =>   3
Atom  50H    basis set group =>   3
Atom  51H    basis set group =>   3
Atom  52H    basis set group =>   3
Atom  53H    basis set group =>   3
Atom  54H    basis set group =>   3
Atom  55H    basis set group =>   3
Atom  56H    basis set group =>   3
Atom  57H    basis set group =>   3
Atom  58H    basis set group =>   3
Atom  59H    basis set group =>   3
Atom  60H    basis set group =>   3
Atom  61H    basis set group =>   3
Atom  62H    basis set group =>   3
Atom  63H    basis set group =>   3


           ************************************************************
           *        Program running with 72 parallel MPI-processes    *
           *              working on a shared directory               *
           ************************************************************
------------------------------------------------------------------------------
                           ORCA GTO INTEGRAL CALCULATION
                           -- RI-GTO INTEGRALS CHOSEN --
------------------------------------------------------------------------------

                         BASIS SET STATISTICS AND STARTUP INFO

Gaussian basis set:
 # of primitive gaussian shells          ...  700
 # of primitive gaussian functions       ... 1164
 # of contracted shells                  ...  432
 # of contracted basis functions         ...  728
 Highest angular momentum                ...    2
 Maximum contraction depth               ...    5
Auxiliary gaussian basis set:
 # of primitive gaussian shells          ... 2024
 # of primitive gaussian functions       ... 5008
 # of contracted shells                  ... 2024
 # of contracted aux-basis functions     ... 5008
 Highest angular momentum                ...    3
 Maximum contraction depth               ...    1
Ratio of auxiliary to basis functions    ...  6.88
Integral package used                  ... LIBINT
 One Electron integrals                  ... done
 Ordering auxiliary basis shells         ... done
 Integral threshhold             Thresh  ...  1.000e-10
 Primitive cut-off               TCut    ...  1.000e-11
 Pre-screening matrix                    ... done
 Shell pair data                         ... 
 Ordering of the shell pairs             ... done (   0.015 sec) 66489 of 93528 pairs
 Determination of significant pairs      ... done (   0.000 sec)
 Creation of shell pair data             ... done (   0.012 sec)
 Storage of shell pair data              ... done (   0.183 sec)
 Shell pair data done in (   0.211 sec)
 Computing two index integrals           ... done
 Cholesky decomposition of the V-matrix  ... done


Timings:
 Total evaluation time                   ...   5.367 sec (  0.089 min)
 One electron matrix time                ...   1.022 sec (  0.017 min) = 19.0%
 Schwartz matrix evaluation time         ...   0.413 sec (  0.007 min) =  7.7%
 Two index repulsion integral time       ...   1.180 sec (  0.020 min) = 22.0%
 Cholesky decomposition of V             ...   2.373 sec (  0.040 min) = 44.2%
 Three index repulsion integral time     ...   0.001 sec (  0.000 min) =  0.0%



           ************************************************************
           *        Program running with 72 parallel MPI-processes    *
           *              working on a shared directory               *
           ************************************************************
-------------------------------------------------------------------------------
                                 ORCA SCF
-------------------------------------------------------------------------------

------------
SCF SETTINGS
------------
Hamiltonian:
 Density Functional     Method          .... DFT(GTOs)
 Exchange Functional    Exchange        .... PBE
   PBE kappa parameter   XKappa         ....  0.804000
   PBE mue parameter    XMuePBE         ....  0.219520
 Correlation Functional Correlation     .... PBE
   PBE beta parameter  CBetaPBE         ....  0.066725
 LDA part of GGA corr.  LDAOpt          .... PW91-LDA
 Gradients option       PostSCFGGA      .... off
   Density functional embedding theory  .... OFF
   NL short-range parameter             ....  6.400000
 RI-approximation to the Coulomb term is turned on
   Number of auxiliary basis functions  .... 5008
   RIJ-COSX (HFX calculated with COS-X)).... on


General Settings:
 Integral files         IntName         .... zfs
 Hartree-Fock type      HFTyp           .... UHF
 Total Charge           Charge          ....   -1
 Multiplicity           Mult            ....    3
 Number of Electrons    NEL             ....  206
 Basis Dimension        Dim             ....  728
 Nuclear Repulsion      ENuc            ....   3308.0184380854 Eh

Convergence Acceleration:
 DIIS                   CNVDIIS         .... on
   Start iteration      DIISMaxIt       ....    12
   Startup error        DIISStart       ....  0.200000
   # of expansion vecs  DIISMaxEq       ....     5
   Bias factor          DIISBfac        ....   1.050
   Max. coefficient     DIISMaxC        ....  10.000
 Newton-Raphson         CNVNR           .... off
 SOSCF                  CNVSOSCF        .... off
 Level Shifting         CNVShift        .... on
   Level shift para.    LevelShift      ....    0.2500
   Turn off err/grad.   ShiftErr        ....    0.0010
 Zerner damping         CNVZerner       .... off
 Static damping         CNVDamp         .... on
   Fraction old density DampFac         ....    0.7000
   Max. Damping (<1)    DampMax         ....    0.9800
   Min. Damping (>=0)   DampMin         ....    0.0000
   Turn off err/grad.   DampErr         ....    0.1000
 Fernandez-Rico         CNVRico         .... off

SCF Procedure:
 Maximum # iterations   MaxIter         ....   125
 SCF integral mode      SCFMode         .... Direct
   Integral package                     .... LIBINT
 Reset frequency        DirectResetFreq ....    20
 Integral Threshold     Thresh          ....  1.000e-10 Eh
 Primitive CutOff       TCut            ....  1.000e-11 Eh

Convergence Tolerance:
 Convergence Check Mode ConvCheckMode   .... Total+1el-Energy
 Convergence forced     ConvForced      .... 0
 Energy Change          TolE            ....  1.000e-06 Eh
 1-El. energy change                    ....  1.000e-03 Eh
 DIIS Error             TolErr          ....  1.000e-06


Diagonalization of the overlap matrix:
Smallest eigenvalue                        ... 1.744e-04
Time for diagonalization                   ...    0.145 sec
Threshold for overlap eigenvalues          ... 1.000e-08
Number of eigenvalues below threshold      ... 0
Time for construction of square roots      ...    0.497 sec
Total time needed                          ...    0.645 sec

-------------------
DFT GRID GENERATION
-------------------

General Integration Accuracy     IntAcc      ...  4.340
Radial Grid Type                 RadialGrid  ... Gauss-Chebyshev
Angular Grid (max. acc.)         AngularGrid ... Lebedev-110
Angular grid pruning method      GridPruning ... 3 (G Style)
Weight generation scheme         WeightScheme... Becke
Basis function cutoff            BFCut       ...    1.0000e-10
Integration weight cutoff        WCut        ...    1.0000e-14
Grids for H and He will be reduced by one unit

# of grid points (after initial pruning)     ...  74998 (   0.0 sec)
# of grid points (after weights+screening)   ...  62521 (   0.1 sec)
nearest neighbour list constructed           ...    0.0 sec
Grid point re-assignment to atoms done       ...    0.0 sec
Grid point division into batches done        ...    0.1 sec
Reduced shell lists constructed in    0.1 sec

Total number of grid points                  ...    62521
Total number of batches                      ...     1007
Average number of points per batch           ...       62
Average number of grid points per atom       ...      977
Average number of shells per batch           ...   225.80 (52.27%)
Average number of basis functions per batch  ...   452.73 (62.19%)
Average number of large shells per batch     ...   168.80 (74.76%)
Average number of large basis fcns per batch ...   337.60 (74.57%)
Maximum spatial batch extension              ...   2.36,  2.31,  2.25 au
Average spatial batch extension              ...   0.02,  0.03,  0.02 au

Time for grid setup =    0.678 sec

------------------------------
INITIAL GUESS: MODEL POTENTIAL
------------------------------
Loading Hartree-Fock densities                     ... done
Calculating cut-offs                               ... done
Setting up the integral package                    ... done
Initializing the effective Hamiltonian             ... done
Starting the Coulomb interaction                   ... done (   0.1 sec)
Reading the grid                                   ... done
Mapping shells                                     ... done
Starting the XC term evaluation                    ... done (   0.2 sec)
  promolecular density results
     # of electrons  =    204.967689684
     EX              =   -156.125296515
     EC              =     -7.166558322
     EX+EC           =   -163.291854837
Transforming the Hamiltonian                       ... done (   0.1 sec)
Diagonalizing the Hamiltonian                      ... done (   0.1 sec)
Back transforming the eigenvectors                 ... done (   0.1 sec)
Now organizing SCF variables                       ... done
                      ------------------
                      INITIAL GUESS DONE (   1.5 sec)
                      ------------------
--------------------
COSX GRID GENERATION
--------------------

General Integration Accuracy     IntAcc      ...  3.340
Radial Grid Type                 RadialGrid  ... Gauss-Chebyshev
Angular Grid (max. acc.)         AngularGrid ... Lebedev-50
Angular grid pruning method      GridPruning ... 3 (G Style)
Weight generation scheme         WeightScheme... Becke
Basis function cutoff            BFCut       ...    1.0000e-10
Integration weight cutoff        WCut        ...    1.0000e-14
Grids for H and He will be reduced by one unit

# of grid points (after initial pruning)     ...  27746 (   0.0 sec)
# of grid points (after weights+screening)   ...  23414 (   0.0 sec)
nearest neighbour list constructed           ...    0.0 sec
Grid point re-assignment to atoms done       ...    0.0 sec
Grid point division into batches done        ...    0.0 sec
Reduced shell lists constructed in    0.0 sec

Total number of grid points                  ...    23414
Total number of batches                      ...      393
Average number of points per batch           ...       59
Average number of grid points per atom       ...      366
Average number of shells per batch           ...   223.00 (51.62%)
Average number of basis functions per batch  ...   447.86 (61.52%)
Average number of large shells per batch     ...   167.00 (74.89%)
Average number of large basis fcns per batch ...   336.71 (75.18%)
Maximum spatial batch extension              ...   3.01,  3.04,  3.10 au
Average spatial batch extension              ...   0.04,  0.04,  0.03 au

Overlap Fitting                  UseSFitting ... on
Constructing numerical overlap ... done (      0.0 sec)
Inverting numerical overlap    ... done (      0.0 sec)
Obtaining analytic overlap     ... done (      0.0 sec)
Final contraction and storage  ... done (      0.1 sec)


General Integration Accuracy     IntAcc      ...  3.670
Radial Grid Type                 RadialGrid  ... Gauss-Chebyshev
Angular Grid (max. acc.)         AngularGrid ... Lebedev-50
Angular grid pruning method      GridPruning ... 3 (G Style)
Weight generation scheme         WeightScheme... Becke
Basis function cutoff            BFCut       ...    1.0000e-10
Integration weight cutoff        WCut        ...    1.0000e-14
Grids for H and He will be reduced by one unit

# of grid points (after initial pruning)     ...  35464 (   0.0 sec)
# of grid points (after weights+screening)   ...  29851 (   0.0 sec)
nearest neighbour list constructed           ...    0.0 sec
Grid point re-assignment to atoms done       ...    0.0 sec
Grid point division into batches done        ...    0.0 sec
Reduced shell lists constructed in    0.0 sec

Total number of grid points                  ...    29851
Total number of batches                      ...      498
Average number of points per batch           ...       59
Average number of grid points per atom       ...      466
Average number of shells per batch           ...   227.75 (52.72%)
Average number of basis functions per batch  ...   457.75 (62.88%)
Average number of large shells per batch     ...   172.50 (75.74%)
Average number of large basis fcns per batch ...   347.75 (75.97%)
Maximum spatial batch extension              ...   2.94,  2.85,  2.88 au
Average spatial batch extension              ...   0.03,  0.03,  0.03 au

Overlap Fitting                  UseSFitting ... on
Constructing numerical overlap ... done (      0.0 sec)
Inverting numerical overlap    ... done (      0.0 sec)
Obtaining analytic overlap     ... done (      0.0 sec)
Final contraction and storage  ... done (      0.1 sec)


General Integration Accuracy     IntAcc      ...  4.010
Radial Grid Type                 RadialGrid  ... Gauss-Chebyshev
Angular Grid (max. acc.)         AngularGrid ... Lebedev-110
Angular grid pruning method      GridPruning ... 3 (G Style)
Weight generation scheme         WeightScheme... Becke
Basis function cutoff            BFCut       ...    1.0000e-10
Integration weight cutoff        WCut        ...    1.0000e-14
Grids for H and He will be reduced by one unit

# of grid points (after initial pruning)     ...  65152 (   0.0 sec)
# of grid points (after weights+screening)   ...  54578 (   0.1 sec)
nearest neighbour list constructed           ...    0.0 sec
Grid point re-assignment to atoms done       ...    0.0 sec
Grid point division into batches done        ...    0.0 sec
Reduced shell lists constructed in    0.1 sec

Total number of grid points                  ...    54578
Total number of batches                      ...      884
Average number of points per batch           ...       61
Average number of grid points per atom       ...      853
Average number of shells per batch           ...   226.29 (52.38%)
Average number of basis functions per batch  ...   454.00 (62.36%)
Average number of large shells per batch     ...   171.64 (75.85%)
Average number of large basis fcns per batch ...   342.64 (75.47%)
Maximum spatial batch extension              ...   2.43,  2.35,  2.28 au
Average spatial batch extension              ...   0.03,  0.03,  0.03 au

Overlap Fitting                  UseSFitting ... on
Constructing numerical overlap ... done (      0.1 sec)
Inverting numerical overlap    ... done (      0.0 sec)
Obtaining analytic overlap     ... done (      0.0 sec)
Final contraction and storage  ... done (      0.1 sec)

Time for X-Grid setup             =    1.576 sec
--------------
SCF ITERATIONS
--------------
ITER       Energy         Delta-E        Max-DP      RMS-DP      [F,P]     Damp
               ***  Starting incremental Fock matrix formation  ***
  0  -1102.3546847238   0.000000000000 7.84945743  0.02041648  0.1511368 0.7000
  1  -1102.7798414515  -0.425156727743 4.99405363  0.01274677  0.0656585 0.7000
                               ***Turning on DIIS***
  2  -1102.8699217010  -0.090080249422 0.84504369  0.00361021  0.0352262 0.0000
  3  -1103.1233123269  -0.253390625950 4.54604981  0.01133011  0.0323285 0.0000
  4  -1103.1565165960  -0.033204269120 1.46814064  0.00364957  0.0198659 0.0000
  5  -1103.1658709690  -0.009354373009 0.65803888  0.00160656  0.0057995 0.0000
  6  -1103.1672112129  -0.001340243812 0.44598711  0.00108243  0.0014079 0.0000
  7  -1103.1674180914  -0.000206878545 0.26927920  0.00064128  0.0023492 0.0000
  8  -1103.1675228986  -0.000104807170 0.56365778  0.00132382  0.0005464 0.0000
  9  -1103.1675896701  -0.000066771537 0.10184257  0.00028976  0.0007935 0.0000
 10  -1103.1675962295  -0.000006559377 0.09207102  0.00022696  0.0005318 0.0000
 11  -1103.1676009162  -0.000004686759 0.02749662  0.00006646  0.0003688 0.0000
 12  -1103.1676028726  -0.000001956387 0.00730329  0.00001823  0.0000666 0.0000
 13  -1103.1676027995   0.000000073109 0.00698246  0.00001196  0.0000968 0.0000
                 **** Energy Check signals convergence ****

               *****************************************************
               *                     SUCCESS                       *
               *           SCF CONVERGED AFTER  14 CYCLES          *
               *****************************************************

Setting up the final grid:

General Integration Accuracy     IntAcc      ...  4.670
Radial Grid Type                 RadialGrid  ... Gauss-Chebyshev
Angular Grid (max. acc.)         AngularGrid ... Lebedev-302
Angular grid pruning method      GridPruning ... 3 (G Style)
Weight generation scheme         WeightScheme... Becke
Basis function cutoff            BFCut       ...    1.0000e-10
Integration weight cutoff        WCut        ...    1.0000e-14
Grids for H and He will be reduced by one unit

# of grid points (after initial pruning)     ... 296120 (   0.0 sec)
# of grid points (after weights+screening)   ... 239166 (   0.2 sec)
nearest neighbour list constructed           ...    0.0 sec
Grid point re-assignment to atoms done       ...    0.1 sec
Grid point division into batches done        ...    0.8 sec
Reduced shell lists constructed in    0.9 sec

Total number of grid points                  ...   239166
Total number of batches                      ...     3770
Average number of points per batch           ...       63
Average number of grid points per atom       ...     3737
Average number of shells per batch           ...   226.69 (52.47%)
Average number of basis functions per batch  ...   456.20 (62.67%)
Average number of large shells per batch     ...   168.19 (74.19%)
Average number of large basis fcns per batch ...   332.96 (72.99%)
Maximum spatial batch extension              ...   1.58,  1.78,  2.02 au
Average spatial batch extension              ...   0.02,  0.02,  0.02 au

Final grid set up in    1.3 sec
Final integration                            ... done (   0.9 sec)
Change in XC energy                          ...    -0.000274215
Integrated number of electrons               ...   205.999793376
Previous integrated no of electrons          ...   205.996617194

----------------
TOTAL SCF ENERGY
----------------

Total Energy       :        -1103.16787713 Eh          -30018.72406 eV

Components:
Nuclear Repulsion  :         3308.01843809 Eh           90015.75801 eV
Electronic Energy  :        -4411.18631521 Eh         -120034.48207 eV
One Electron Energy:        -8103.21887937 Eh         -220499.79570 eV
Two Electron Energy:         3692.03256415 Eh          100465.31363 eV

Virial components:
Potential Energy   :        -2203.46084712 Eh          -59959.21792 eV
Kinetic Energy     :         1100.29296999 Eh           29940.49386 eV
Virial Ratio       :            2.00261286


DFT components:
N(Alpha)           :      103.999905266452 electrons
N(Beta)            :      101.999888109686 electrons
N(Total)           :      205.999793376138 electrons
E(X)               :     -159.757610735587 Eh       
E(C)               :       -7.076887901586 Eh       
E(XC)              :     -166.834498637173 Eh       
DFET-embed. en.    :        0.000000000000 Eh       

---------------
SCF CONVERGENCE
---------------

  Last Energy change         ...   -1.1316e-07  Tolerance :   1.0000e-06
  Last MAX-Density change    ...    7.7654e-04  Tolerance :   1.0000e-05
  Last RMS-Density change    ...    1.9346e-06  Tolerance :   1.0000e-06
  Last DIIS Error            ...    3.2579e-05  Tolerance :   1.0000e-06

             **** THE GBW FILE WAS UPDATED (zfs.gbw) ****
             **** DENSITY FILE WAS UPDATED (zfs.scfp) ****
             **** ENERGY FILE WAS UPDATED (zfs.en.tmp) ****
----------------------
UHF SPIN CONTAMINATION
----------------------

Warning: in a DFT calculation there is little theoretical justification to 
         calculate <S**2> as in Hartree-Fock theory. We will do it anyways
         but you should keep in mind that the values have only limited relevance

Expectation value of <S**2>     :     2.011123
Ideal value S*(S+1) for S=1.0   :     2.000000
Deviation                       :     0.011123

             **** THE GBW FILE WAS UPDATED (zfs.gbw) ****
             **** DENSITY FILE WAS UPDATED (zfs.scfp) ****
----------------
ORBITAL ENERGIES
----------------
                 SPIN UP ORBITALS
  NO   OCC          E(Eh)            E(eV) 
   0   1.0000     -13.855687      -377.0324 
   1   1.0000      -9.801416      -266.7101 
   2   1.0000      -9.801212      -266.7045 
   3   1.0000      -9.801108      -266.7017 
   4   1.0000      -9.762897      -265.6619 
   5   1.0000      -9.762802      -265.6593 
   6   1.0000      -9.762702      -265.6566 
   7   1.0000      -9.762675      -265.6559 
   8   1.0000      -9.762668      -265.6557 
   9   1.0000      -9.762567      -265.6529 
  10   1.0000      -9.755791      -265.4686 
  11   1.0000      -9.755587      -265.4630 
  12   1.0000      -9.755400      -265.4579 
  13   1.0000      -9.749145      -265.2877 
  14   1.0000      -9.749021      -265.2844 
  15   1.0000      -9.748936      -265.2820 
  16   1.0000      -9.748570      -265.2721 
  17   1.0000      -9.748242      -265.2631 
  18   1.0000      -9.748065      -265.2583 
  19   1.0000      -9.739873      -265.0354 
  20   1.0000      -9.739744      -265.0319 
  21   1.0000      -9.739208      -265.0173 
  22   1.0000      -9.735677      -264.9212 
  23   1.0000      -9.735415      -264.9141 
  24   1.0000      -9.735386      -264.9133 
  25   1.0000      -9.734583      -264.8915 
  26   1.0000      -9.734555      -264.8907 
  27   1.0000      -9.734101      -264.8784 
  28   1.0000      -0.729675       -19.8555 
  29   1.0000      -0.667457       -18.1624 
  30   1.0000      -0.652358       -17.7516 
  31   1.0000      -0.652266       -17.7491 
  32   1.0000      -0.609351       -16.5813 
  33   1.0000      -0.598218       -16.2784 
  34   1.0000      -0.598006       -16.2726 
  35   1.0000      -0.582472       -15.8499 
  36   1.0000      -0.582370       -15.8471 
  37   1.0000      -0.545778       -14.8514 
  38   1.0000      -0.521573       -14.1927 
  39   1.0000      -0.521566       -14.1925 
  40   1.0000      -0.518974       -14.1220 
  41   1.0000      -0.515863       -14.0373 
  42   1.0000      -0.515807       -14.0358 
  43   1.0000      -0.501956       -13.6589 
  44   1.0000      -0.444689       -12.1006 
  45   1.0000      -0.444607       -12.0984 
  46   1.0000      -0.423874       -11.5342 
  47   1.0000      -0.405280       -11.0282 
  48   1.0000      -0.405258       -11.0276 
  49   1.0000      -0.400287       -10.8924 
  50   1.0000      -0.397527       -10.8173 
  51   1.0000      -0.384035       -10.4501 
  52   1.0000      -0.383977       -10.4485 
  53   1.0000      -0.358441        -9.7537 
  54   1.0000      -0.357939        -9.7400 
  55   1.0000      -0.357918        -9.7395 
  56   1.0000      -0.346455        -9.4275 
  57   1.0000      -0.312899        -8.5144 
  58   1.0000      -0.308955        -8.4071 
  59   1.0000      -0.308911        -8.4059 
  60   1.0000      -0.301281        -8.1983 
  61   1.0000      -0.301246        -8.1973 
  62   1.0000      -0.282087        -7.6760 
  63   1.0000      -0.279308        -7.6003 
  64   1.0000      -0.279180        -7.5969 
  65   1.0000      -0.275651        -7.5009 
  66   1.0000      -0.275598        -7.4994 
  67   1.0000      -0.242668        -6.6033 
  68   1.0000      -0.242609        -6.6017 
  69   1.0000      -0.238247        -6.4830 
  70   1.0000      -0.231068        -6.2877 
  71   1.0000      -0.228444        -6.2163 
  72   1.0000      -0.226290        -6.1577 
  73   1.0000      -0.226252        -6.1566 
  74   1.0000      -0.212508        -5.7826 
  75   1.0000      -0.212384        -5.7793 
  76   1.0000      -0.210136        -5.7181 
  77   1.0000      -0.197024        -5.3613 
  78   1.0000      -0.190615        -5.1869 
  79   1.0000      -0.190604        -5.1866 
  80   1.0000      -0.179316        -4.8794 
  81   1.0000      -0.179286        -4.8786 
  82   1.0000      -0.171421        -4.6646 
  83   1.0000      -0.166772        -4.5381 
  84   1.0000      -0.166758        -4.5377 
  85   1.0000      -0.161145        -4.3850 
  86   1.0000      -0.158667        -4.3176 
  87   1.0000      -0.156275        -4.2525 
  88   1.0000      -0.156170        -4.2496 
  89   1.0000      -0.146981        -3.9996 
  90   1.0000      -0.146860        -3.9963 
  91   1.0000      -0.135109        -3.6765 
  92   1.0000      -0.119926        -3.2634 
  93   1.0000      -0.119872        -3.2619 
  94   1.0000      -0.095604        -2.6015 
  95   1.0000      -0.095548        -2.6000 
  96   1.0000      -0.092620        -2.5203 
  97   1.0000      -0.077046        -2.0965 
  98   1.0000      -0.059080        -1.6077 
  99   1.0000      -0.056875        -1.5477 
 100   1.0000      -0.056521        -1.5380 
 101   1.0000       0.002056         0.0559 
 102   1.0000       0.047289         1.2868 
 103   1.0000       0.047602         1.2953 
 104   0.0000       0.096937         2.6378 
 105   0.0000       0.113813         3.0970 
 106   0.0000       0.116295         3.1646 
 107   0.0000       0.117277         3.1913 
 108   0.0000       0.124651         3.3919 
 109   0.0000       0.124893         3.3985 
 110   0.0000       0.126603         3.4451 
 111   0.0000       0.130647         3.5551 
 112   0.0000       0.131327         3.5736 
 113   0.0000       0.141270         3.8441 
 114   0.0000       0.142215         3.8699 
 115   0.0000       0.143943         3.9169 
 116   0.0000       0.150425         4.0933 
 117   0.0000       0.151155         4.1131 
 118   0.0000       0.153255         4.1703 
 119   0.0000       0.155406         4.2288 
 120   0.0000       0.179143         4.8747 
 121   0.0000       0.180191         4.9032 
 122   0.0000       0.184204         5.0125 
 123   0.0000       0.184619         5.0237 
 124   0.0000       0.185063         5.0358 
 125   0.0000       0.185490         5.0474 
 126   0.0000       0.193406         5.2628 
 127   0.0000       0.194131         5.2826 
 128   0.0000       0.195974         5.3327 
 129   0.0000       0.228181         6.2091 
 130   0.0000       0.228420         6.2156 
 131   0.0000       0.230095         6.2612 
 132   0.0000       0.239679         6.5220 
 133   0.0000       0.246526         6.7083 
 134   0.0000       0.249941         6.8012 
 135   0.0000       0.250118         6.8061 
 136   0.0000       0.251968         6.8564 
 137   0.0000       0.252428         6.8689 
 138   0.0000       0.275225         7.4892 
 139   0.0000       0.277024         7.5382 
 140   0.0000       0.277356         7.5472 
 141   0.0000       0.283537         7.7154 
 142   0.0000       0.284197         7.7334 
 143   0.0000       0.292201         7.9512 
 144   0.0000       0.292788         7.9672 
 145   0.0000       0.293044         7.9741 
 146   0.0000       0.296568         8.0700 
 147   0.0000       0.297440         8.0938 
 148   0.0000       0.297686         8.1005 
 149   0.0000       0.299387         8.1467 
 150   0.0000       0.308322         8.3899 
 151   0.0000       0.308599         8.3974 
 152   0.0000       0.311075         8.4648 
 153   0.0000       0.311863         8.4862 
 154   0.0000       0.314050         8.5457 
 155   0.0000       0.327515         8.9121 
 156   0.0000       0.331923         9.0321 
 157   0.0000       0.332233         9.0405 
 158   0.0000       0.340898         9.2763 
 159   0.0000       0.343738         9.3536 
 160   0.0000       0.344047         9.3620 
 161   0.0000       0.354952         9.6587 
 162   0.0000       0.355556         9.6752 
 163   0.0000       0.356955         9.7133 
 164   0.0000       0.366306         9.9677 
 165   0.0000       0.372274        10.1301 
 166   0.0000       0.373299        10.1580 
 167   0.0000       0.374040        10.1781 
 168   0.0000       0.382043        10.3959 
 169   0.0000       0.382164        10.3992 
 170   0.0000       0.382723        10.4144 
 171   0.0000       0.388911        10.5828 
 172   0.0000       0.389694        10.6041 
 173   0.0000       0.390038        10.6135 
 174   0.0000       0.392886        10.6910 
 175   0.0000       0.393381        10.7045 
 176   0.0000       0.394511        10.7352 
 177   0.0000       0.397449        10.8151 
 178   0.0000       0.398075        10.8322 
 179   0.0000       0.410791        11.1782 
 180   0.0000       0.411664        11.2020 
 181   0.0000       0.413608        11.2548 
 182   0.0000       0.427350        11.6288 
 183   0.0000       0.428211        11.6522 
 184   0.0000       0.428386        11.6570 
 185   0.0000       0.428953        11.6724 
 186   0.0000       0.429191        11.6789 
 187   0.0000       0.431728        11.7479 
 188   0.0000       0.432817        11.7775 
 189   0.0000       0.433731        11.8024 
 190   0.0000       0.436923        11.8893 
 191   0.0000       0.437920        11.9164 
 192   0.0000       0.438537        11.9332 
 193   0.0000       0.451093        12.2749 
 194   0.0000       0.460601        12.5336 
 195   0.0000       0.461233        12.5508 
 196   0.0000       0.467312        12.7162 
 197   0.0000       0.470893        12.8136 
 198   0.0000       0.471867        12.8401 
 199   0.0000       0.472786        12.8652 
 200   0.0000       0.482416        13.1272 
 201   0.0000       0.483207        13.1487 
 202   0.0000       0.498632        13.5685 
 203   0.0000       0.507940        13.8217 
 204   0.0000       0.509403        13.8616 
 205   0.0000       0.510997        13.9049 
 206   0.0000       0.515518        14.0280 
 207   0.0000       0.516817        14.0633 
 208   0.0000       0.527369        14.3504 
 209   0.0000       0.534674        14.5492 
 210   0.0000       0.535977        14.5847 
 211   0.0000       0.537495        14.6260 
 212   0.0000       0.541756        14.7419 
 213   0.0000       0.546748        14.8778 
 214   0.0000       0.548174        14.9166 
 215   0.0000       0.551223        14.9995 
 216   0.0000       0.558322        15.1927 
 217   0.0000       0.558761        15.2047 
 218   0.0000       0.559405        15.2222 
 219   0.0000       0.575493        15.6600 
 220   0.0000       0.579301        15.7636 
 221   0.0000       0.580875        15.8064 
 222   0.0000       0.590236        16.0611 
 223   0.0000       0.591185        16.0870 
 224   0.0000       0.600196        16.3322 
 225   0.0000       0.603056        16.4100 
 226   0.0000       0.604546        16.4505 
 227   0.0000       0.608011        16.5448 
 228   0.0000       0.616159        16.7665 
 229   0.0000       0.618152        16.8208 
 230   0.0000       0.619292        16.8518 
 231   0.0000       0.620178        16.8759 
 232   0.0000       0.621608        16.9148 
 233   0.0000       0.623323        16.9615 
 234   0.0000       0.624435        16.9917 
 235   0.0000       0.625113        17.0102 
 236   0.0000       0.634139        17.2558 
 237   0.0000       0.644568        17.5396 
 238   0.0000       0.645041        17.5525 
 239   0.0000       0.646858        17.6019 
 240   0.0000       0.657675        17.8962 
 241   0.0000       0.658286        17.9129 
 242   0.0000       0.664331        18.0774 
 243   0.0000       0.679102        18.4793 
 244   0.0000       0.697313        18.9748 
 245   0.0000       0.698928        19.0188 
 246   0.0000       0.702600        19.1187 
 247   0.0000       0.703553        19.1446 
 248   0.0000       0.708579        19.2814 
 249   0.0000       0.713989        19.4286 
 250   0.0000       0.714074        19.4309 
 251   0.0000       0.714610        19.4455 
 252   0.0000       0.730261        19.8714 
 253   0.0000       0.735999        20.0275 
 254   0.0000       0.737430        20.0665 
 255   0.0000       0.737815        20.0770 
 256   0.0000       0.744547        20.2602 
 257   0.0000       0.746444        20.3118 
 258   0.0000       0.758302        20.6345 
 259   0.0000       0.758596        20.6424 
 260   0.0000       0.761113        20.7109 
 261   0.0000       0.761301        20.7160 
 262   0.0000       0.762146        20.7390 
 263   0.0000       0.779494        21.2111 
 264   0.0000       0.812121        22.0989 
 265   0.0000       0.828539        22.5457 
 266   0.0000       0.852806        23.2060 
 267   0.0000       0.852988        23.2110 
 268   0.0000       0.856990        23.3199 
 269   0.0000       0.857471        23.3330 
 270   0.0000       0.896127        24.3849 
 271   0.0000       0.898649        24.4535 
 272   0.0000       0.906451        24.6658 
 273   0.0000       0.907776        24.7018 
 274   0.0000       0.916182        24.9306 
 275   0.0000       0.923190        25.1213 
 276   0.0000       0.924497        25.1569 
 277   0.0000       0.942480        25.6462 
 278   0.0000       0.950863        25.8743 
 279   0.0000       0.951828        25.9005 
 280   0.0000       0.956273        26.0215 
 281   0.0000       0.957697        26.0603 
 282   0.0000       0.958663        26.0865 
 283   0.0000       0.961851        26.1733 
 284   0.0000       0.964446        26.2439 
 285   0.0000       0.965728        26.2788 
 286   0.0000       0.984503        26.7897 
 287   0.0000       1.007652        27.4196 
 288   0.0000       1.010635        27.5008 
 289   0.0000       1.011513        27.5247 
 290   0.0000       1.016099        27.6495 
 291   0.0000       1.017259        27.6810 
 292   0.0000       1.018150        27.7053 
 293   0.0000       1.030149        28.0318 
 294   0.0000       1.030373        28.0379 
 295   0.0000       1.039762        28.2934 
 296   0.0000       1.040459        28.3123 
 297   0.0000       1.041558        28.3422 
 298   0.0000       1.046308        28.4715 
 299   0.0000       1.046887        28.4872 
 300   0.0000       1.054607        28.6973 
 301   0.0000       1.060212        28.8498 
 302   0.0000       1.060797        28.8658 
 303   0.0000       1.061273        28.8787 
 304   0.0000       1.067025        29.0352 
 305   0.0000       1.067341        29.0438 
 306   0.0000       1.070673        29.1345 
 307   0.0000       1.088449        29.6182 
 308   0.0000       1.095088        29.7989 
 309   0.0000       1.096692        29.8425 
 310   0.0000       1.125168        30.6174 
 311   0.0000       1.131249        30.7828 
 312   0.0000       1.131517        30.7902 
 313   0.0000       1.132482        30.8164 
 314   0.0000       1.135335        30.8940 
 315   0.0000       1.136009        30.9124 
 316   0.0000       1.140173        31.0257 
 317   0.0000       1.141204        31.0537 
 318   0.0000       1.141941        31.0738 
 319   0.0000       1.146518        31.1983 
 320   0.0000       1.147351        31.2210 
 321   0.0000       1.148566        31.2541 
 322   0.0000       1.149136        31.2696 
 323   0.0000       1.153552        31.3898 
 324   0.0000       1.153810        31.3968 
 325   0.0000       1.154550        31.4169 
 326   0.0000       1.155391        31.4398 
 327   0.0000       1.160753        31.5857 
 328   0.0000       1.161214        31.5982 
 329   0.0000       1.170408        31.8484 
 330   0.0000       1.204212        32.7683 
 331   0.0000       1.205030        32.7905 
 332   0.0000       1.205439        32.8017 
 333   0.0000       1.206343        32.8263 
 334   0.0000       1.209030        32.8994 
 335   0.0000       1.209251        32.9054 
 336   0.0000       1.214201        33.0401 
 337   0.0000       1.214883        33.0586 
 338   0.0000       1.215593        33.0780 
 339   0.0000       1.216466        33.1017 
 340   0.0000       1.233342        33.5609 
 341   0.0000       1.233807        33.5736 
 342   0.0000       1.249659        34.0049 
 343   0.0000       1.270561        34.5737 
 344   0.0000       1.279503        34.8170 
 345   0.0000       1.279861        34.8268 
 346   0.0000       1.282343        34.8943 
 347   0.0000       1.290448        35.1149 
 348   0.0000       1.293869        35.2080 
 349   0.0000       1.295261        35.2458 
 350   0.0000       1.306939        35.5636 
 351   0.0000       1.308575        35.6081 
 352   0.0000       1.313621        35.7455 
 353   0.0000       1.327790        36.1310 
 354   0.0000       1.330399        36.2020 
 355   0.0000       1.331397        36.2291 
 356   0.0000       1.368389        37.2358 
 357   0.0000       1.368634        37.2424 
 358   0.0000       1.381933        37.6043 
 359   0.0000       1.384782        37.6818 
 360   0.0000       1.385462        37.7003 
 361   0.0000       1.402888        38.1745 
 362   0.0000       1.403914        38.2024 
 363   0.0000       1.405035        38.2329 
 364   0.0000       1.411975        38.4218 
 365   0.0000       1.428848        38.8809 
 366   0.0000       1.429609        38.9016 
 367   0.0000       1.438098        39.1326 
 368   0.0000       1.440549        39.1993 
 369   0.0000       1.440909        39.2091 
 370   0.0000       1.455009        39.5928 
 371   0.0000       1.455769        39.6135 
 372   0.0000       1.464246        39.8442 
 373   0.0000       1.485155        40.4131 
 374   0.0000       1.487107        40.4662 
 375   0.0000       1.487440        40.4753 
 376   0.0000       1.496727        40.7280 
 377   0.0000       1.497410        40.7466 
 378   0.0000       1.498314        40.7712 
 379   0.0000       1.505635        40.9704 
 380   0.0000       1.507247        41.0143 
 381   0.0000       1.507988        41.0344 
 382   0.0000       1.511605        41.1329 
 383   0.0000       1.518183        41.3119 
 384   0.0000       1.518939        41.3324 
 385   0.0000       1.530732        41.6533 
 386   0.0000       1.532855        41.7111 
 387   0.0000       1.533318        41.7237 
 388   0.0000       1.539646        41.8959 
 389   0.0000       1.540342        41.9148 
 390   0.0000       1.540964        41.9318 
 391   0.0000       1.553842        42.2822 
 392   0.0000       1.565070        42.5877 
 393   0.0000       1.565528        42.6002 
 394   0.0000       1.566263        42.6202 
 395   0.0000       1.571465        42.7617 
 396   0.0000       1.571966        42.7754 
 397   0.0000       1.583360        43.0854 
 398   0.0000       1.598549        43.4987 
 399   0.0000       1.598906        43.5085 
 400   0.0000       1.611846        43.8606 
 401   0.0000       1.615481        43.9595 
 402   0.0000       1.616374        43.9838 
 403   0.0000       1.621126        44.1131 
 404   0.0000       1.641898        44.6783 
 405   0.0000       1.645396        44.7735 
 406   0.0000       1.650826        44.9212 
 407   0.0000       1.651710        44.9453 
 408   0.0000       1.662503        45.2390 
 409   0.0000       1.662678        45.2438 
 410   0.0000       1.668338        45.3978 
 411   0.0000       1.668745        45.4088 
 412   0.0000       1.686210        45.8841 
 413   0.0000       1.686511        45.8923 
 414   0.0000       1.687945        45.9313 
 415   0.0000       1.688099        45.9355 
 416   0.0000       1.688376        45.9430 
 417   0.0000       1.708036        46.4780 
 418   0.0000       1.731538        47.1175 
 419   0.0000       1.731822        47.1253 
 420   0.0000       1.736061        47.2406 
 421   0.0000       1.744468        47.4694 
 422   0.0000       1.745118        47.4871 
 423   0.0000       1.749938        47.6182 
 424   0.0000       1.752329        47.6833 
 425   0.0000       1.753309        47.7100 
 426   0.0000       1.763249        47.9804 
 427   0.0000       1.763586        47.9896 
 428   0.0000       1.781184        48.4685 
 429   0.0000       1.801148        49.0117 
 430   0.0000       1.801829        49.0302 
 431   0.0000       1.806901        49.1683 
 432   0.0000       1.807031        49.1718 
 433   0.0000       1.812234        49.3134 
 434   0.0000       1.812737        49.3271 
 435   0.0000       1.819418        49.5089 
 436   0.0000       1.819678        49.5160 
 437   0.0000       1.825357        49.6705 
 438   0.0000       1.832355        49.8609 
 439   0.0000       1.832753        49.8717 
 440   0.0000       1.835633        49.9501 
 441   0.0000       1.840420        50.0804 
 442   0.0000       1.841155        50.1004 
 443   0.0000       1.851162        50.3727 
 444   0.0000       1.855774        50.4982 
 445   0.0000       1.855996        50.5042 
 446   0.0000       1.857418        50.5429 
 447   0.0000       1.858336        50.5679 
 448   0.0000       1.858628        50.5758 
 449   0.0000       1.870164        50.8897 
 450   0.0000       1.905688        51.8564 
 451   0.0000       1.906046        51.8661 
 452   0.0000       1.907194        51.8974 
 453   0.0000       1.926072        52.4111 
 454   0.0000       1.930632        52.5352 
 455   0.0000       1.933246        52.6063 
 456   0.0000       1.939683        52.7815 
 457   0.0000       1.939876        52.7867 
 458   0.0000       1.943929        52.8970 
 459   0.0000       1.944291        52.9069 
 460   0.0000       1.950804        53.0841 
 461   0.0000       1.951139        53.0932 
 462   0.0000       1.967144        53.5287 
 463   0.0000       1.969438        53.5911 
 464   0.0000       1.971204        53.6392 
 465   0.0000       1.971439        53.6456 
 466   0.0000       1.993234        54.2387 
 467   0.0000       1.997361        54.3510 
 468   0.0000       1.997458        54.3536 
 469   0.0000       2.007223        54.6193 
 470   0.0000       2.007377        54.6235 
 471   0.0000       2.015372        54.8411 
 472   0.0000       2.017057        54.8869 
 473   0.0000       2.017532        54.8998 
 474   0.0000       2.024079        55.0780 
 475   0.0000       2.032859        55.3169 
 476   0.0000       2.033087        55.3231 
 477   0.0000       2.039700        55.5031 
 478   0.0000       2.040055        55.5127 
 479   0.0000       2.043415        55.6041 
 480   0.0000       2.052755        55.8583 
 481   0.0000       2.053193        55.8702 
 482   0.0000       2.069182        56.3053 
 483   0.0000       2.081903        56.6515 
 484   0.0000       2.084769        56.7294 
 485   0.0000       2.086862        56.7864 
 486   0.0000       2.087255        56.7971 
 487   0.0000       2.105815        57.3021 
 488   0.0000       2.105866        57.3035 
 489   0.0000       2.110544        57.4308 
 490   0.0000       2.118578        57.6494 
 491   0.0000       2.118931        57.6590 
 492   0.0000       2.124658        57.8149 
 493   0.0000       2.126239        57.8579 
 494   0.0000       2.126293        57.8594 
 495   0.0000       2.151197        58.5370 
 496   0.0000       2.162936        58.8565 
 497   0.0000       2.179120        59.2969 
 498   0.0000       2.179519        59.3077 
 499   0.0000       2.193425        59.6861 
 500   0.0000       2.209587        60.1259 
 501   0.0000       2.213441        60.2308 
 502   0.0000       2.213715        60.2382 
 503   0.0000       2.224106        60.5210 
 504   0.0000       2.224872        60.5418 
 505   0.0000       2.225089        60.5478 
 506   0.0000       2.229467        60.6669 
 507   0.0000       2.229698        60.6732 
 508   0.0000       2.250527        61.2400 
 509   0.0000       2.250654        61.2434 
 510   0.0000       2.274491        61.8921 
 511   0.0000       2.275039        61.9069 
 512   0.0000       2.290786        62.3355 
 513   0.0000       2.296227        62.4835 
 514   0.0000       2.307733        62.7966 
 515   0.0000       2.307998        62.8038 
 516   0.0000       2.314278        62.9747 
 517   0.0000       2.326504        63.3074 
 518   0.0000       2.347992        63.8921 
 519   0.0000       2.348119        63.8956 
 520   0.0000       2.358951        64.1903 
 521   0.0000       2.359534        64.2062 
 522   0.0000       2.359666        64.2098 
 523   0.0000       2.395282        65.1789 
 524   0.0000       2.395769        65.1922 
 525   0.0000       2.417867        65.7935 
 526   0.0000       2.423832        65.9558 
 527   0.0000       2.424023        65.9610 
 528   0.0000       2.426492        66.0282 
 529   0.0000       2.435650        66.2774 
 530   0.0000       2.435875        66.2835 
 531   0.0000       2.446328        66.5680 
 532   0.0000       2.456623        66.8481 
 533   0.0000       2.457113        66.8615 
 534   0.0000       2.468141        67.1615 
 535   0.0000       2.468480        67.1708 
 536   0.0000       2.474106        67.3239 
 537   0.0000       2.479489        67.4703 
 538   0.0000       2.511426        68.3394 
 539   0.0000       2.511823        68.3502 
 540   0.0000       2.522441        68.6391 
 541   0.0000       2.550379        69.3993 
 542   0.0000       2.564829        69.7926 
 543   0.0000       2.565259        69.8042 
 544   0.0000       2.584212        70.3200 
 545   0.0000       2.588223        70.4291 
 546   0.0000       2.600000        70.7496 
 547   0.0000       2.600342        70.7589 
 548   0.0000       2.616817        71.2072 
 549   0.0000       2.617267        71.2194 
 550   0.0000       2.633001        71.6476 
 551   0.0000       2.633288        71.6554 
 552   0.0000       2.633381        71.6579 
 553   0.0000       2.671539        72.6963 
 554   0.0000       2.682768        73.0018 
 555   0.0000       2.694521        73.3217 
 556   0.0000       2.695154        73.3389 
 557   0.0000       2.739694        74.5509 
 558   0.0000       2.745299        74.7034 
 559   0.0000       2.747874        74.7734 
[...]
 521( 0) :     2.359536 a.u.    64.206 eV
 522( 0) :     2.359667 a.u.    64.210 eV
 523( 0) :     2.395281 a.u.    65.179 eV
 524( 0) :     2.395772 a.u.    65.192 eV
 525( 0) :     2.417869 a.u.    65.794 eV
 526( 0) :     2.423835 a.u.    65.956 eV
 527( 0) :     2.424025 a.u.    65.961 eV
 528( 0) :     2.426496 a.u.    66.028 eV
 529( 0) :     2.435651 a.u.    66.277 eV
 530( 0) :     2.435876 a.u.    66.284 eV
 531( 0) :     2.446330 a.u.    66.568 eV
 532( 0) :     2.456626 a.u.    66.848 eV
 533( 0) :     2.457117 a.u.    66.862 eV
 534( 0) :     2.468143 a.u.    67.162 eV
 535( 0) :     2.468482 a.u.    67.171 eV
 536( 0) :     2.474110 a.u.    67.324 eV
 537( 0) :     2.479488 a.u.    67.470 eV
 538( 0) :     2.511428 a.u.    68.339 eV
 539( 0) :     2.511824 a.u.    68.350 eV
 540( 0) :     2.522440 a.u.    68.639 eV
 541( 0) :     2.550382 a.u.    69.399 eV
 542( 0) :     2.564829 a.u.    69.793 eV
 543( 0) :     2.565257 a.u.    69.804 eV
 544( 0) :     2.584217 a.u.    70.320 eV
 545( 0) :     2.588216 a.u.    70.429 eV
 546( 0) :     2.600001 a.u.    70.750 eV
 547( 0) :     2.600340 a.u.    70.759 eV
 548( 0) :     2.616816 a.u.    71.207 eV
 549( 0) :     2.617265 a.u.    71.219 eV
 550( 0) :     2.633001 a.u.    71.648 eV
 551( 0) :     2.633287 a.u.    71.655 eV
 552( 0) :     2.633383 a.u.    71.658 eV
 553( 0) :     2.671539 a.u.    72.696 eV
 554( 0) :     2.682769 a.u.    73.002 eV
 555( 0) :     2.694522 a.u.    73.322 eV
 556( 0) :     2.695153 a.u.    73.339 eV
 557( 0) :     2.739699 a.u.    74.551 eV
 558( 0) :     2.745301 a.u.    74.703 eV
 559( 0) :     2.747877 a.u.    74.774 eV
 560( 0) :     2.747947 a.u.    74.775 eV
 561( 0) :     2.757892 a.u.    75.046 eV
 562( 0) :     2.758085 a.u.    75.051 eV
 563( 0) :     2.768228 a.u.    75.327 eV
 564( 0) :     2.768560 a.u.    75.336 eV
 565( 0) :     2.777330 a.u.    75.575 eV
 566( 0) :     2.785278 a.u.    75.791 eV
 567( 0) :     2.785492 a.u.    75.797 eV
 568( 0) :     2.791178 a.u.    75.952 eV
 569( 0) :     2.795878 a.u.    76.080 eV
 570( 0) :     2.796454 a.u.    76.095 eV
 571( 0) :     2.798590 a.u.    76.154 eV
 572( 0) :     2.818533 a.u.    76.696 eV
 573( 0) :     2.819815 a.u.    76.731 eV
 574( 0) :     2.856796 a.u.    77.737 eV
 575( 0) :     2.859473 a.u.    77.810 eV
 576( 0) :     2.860399 a.u.    77.835 eV
 577( 0) :     2.875709 a.u.    78.252 eV
 578( 0) :     2.875870 a.u.    78.256 eV
 579( 0) :     2.910595 a.u.    79.201 eV
 580( 0) :     2.911282 a.u.    79.220 eV
 581( 0) :     2.922626 a.u.    79.529 eV
 582( 0) :     2.922982 a.u.    79.538 eV
 583( 0) :     2.925271 a.u.    79.601 eV
 584( 0) :     2.934192 a.u.    79.843 eV
 585( 0) :     2.962876 a.u.    80.624 eV
 586( 0) :     2.964161 a.u.    80.659 eV
 587( 0) :     2.975326 a.u.    80.963 eV
 588( 0) :     2.986416 a.u.    81.265 eV
 589( 0) :     2.986829 a.u.    81.276 eV
 590( 0) :     3.062859 a.u.    83.345 eV
 591( 0) :     3.063585 a.u.    83.364 eV
 592( 0) :     3.067222 a.u.    83.463 eV
 593( 0) :     3.140815 a.u.    85.466 eV
 594( 0) :     3.800192 a.u.   103.408 eV
 595( 0) :     3.805210 a.u.   103.545 eV
 596( 0) :     3.835518 a.u.   104.370 eV
 597( 0) :     3.850217 a.u.   104.770 eV
 598( 0) :     3.885875 a.u.   105.740 eV
 599( 0) :     3.886795 a.u.   105.765 eV
 600( 0) :     5.167419 a.u.   140.613 eV
 601( 0) :     5.167646 a.u.   140.619 eV
 602( 0) :     5.176449 a.u.   140.858 eV
 603( 0) :     5.181912 a.u.   141.007 eV
 604( 0) :     5.182405 a.u.   141.020 eV
 605( 0) :     5.184967 a.u.   141.090 eV
 606( 0) :     5.280446 a.u.   143.688 eV
 607( 0) :     5.280596 a.u.   143.692 eV
 608( 0) :     5.285609 a.u.   143.829 eV
 609( 0) :     5.287551 a.u.   143.882 eV
 610( 0) :     5.287606 a.u.   143.883 eV
 611( 0) :     5.289720 a.u.   143.941 eV
 612( 0) :     5.298221 a.u.   144.172 eV
 613( 0) :     5.298504 a.u.   144.180 eV
 614( 0) :     5.301048 a.u.   144.249 eV
 615( 0) :     5.318878 a.u.   144.734 eV
 616( 0) :     5.319302 a.u.   144.746 eV
 617( 0) :     5.338341 a.u.   145.264 eV
 618( 0) :     5.371355 a.u.   146.162 eV
 619( 0) :     5.372004 a.u.   146.180 eV
 620( 0) :     5.383368 a.u.   146.489 eV
 621( 0) :     5.398948 a.u.   146.913 eV
 622( 0) :     5.399727 a.u.   146.934 eV
 623( 0) :     5.402956 a.u.   147.022 eV
 624( 0) :     5.416856 a.u.   147.400 eV
 625( 0) :     5.455633 a.u.   148.455 eV
 626( 0) :     5.456034 a.u.   148.466 eV
 627( 0) :     5.456381 a.u.   148.476 eV
 628( 0) :     5.486350 a.u.   149.291 eV
 629( 0) :     5.487258 a.u.   149.316 eV
 630( 0) :     5.487580 a.u.   149.325 eV
 631( 0) :     5.506877 a.u.   149.850 eV
 632( 0) :     5.520233 a.u.   150.213 eV
 633( 0) :     5.521149 a.u.   150.238 eV
 634( 0) :     5.546042 a.u.   150.915 eV
 635( 0) :     5.546189 a.u.   150.919 eV
 636( 0) :     5.557362 a.u.   151.224 eV
 637( 0) :     5.584848 a.u.   151.971 eV
 638( 0) :     5.587537 a.u.   152.045 eV
 639( 0) :     5.588006 a.u.   152.057 eV
 640( 0) :     5.646657 a.u.   153.653 eV
 641( 0) :     5.647714 a.u.   153.682 eV
 642( 0) :     5.669321 a.u.   154.270 eV
 643( 0) :     5.729697 a.u.   155.913 eV
 644( 0) :     5.730396 a.u.   155.932 eV
 645( 0) :     5.745753 a.u.   156.350 eV
 646( 0) :     5.753251 a.u.   156.554 eV
 647( 0) :     5.758693 a.u.   156.702 eV
 648( 0) :     5.759028 a.u.   156.711 eV
 649( 0) :     5.839236 a.u.   158.894 eV
 650( 0) :     5.839387 a.u.   158.898 eV
 651( 0) :     5.894764 a.u.   160.405 eV
 652( 0) :     5.990141 a.u.   163.000 eV
 653( 0) :     5.990366 a.u.   163.006 eV
 654( 0) :     6.074646 a.u.   165.300 eV
 655( 0) :     6.075279 a.u.   165.317 eV
 656( 0) :     6.085473 a.u.   165.594 eV
 657( 0) :     6.096952 a.u.   165.906 eV
 658( 0) :     6.106839 a.u.   166.176 eV
 659( 0) :     6.107314 a.u.   166.188 eV
 660( 0) :     6.114703 a.u.   166.390 eV
 661( 0) :     6.115505 a.u.   166.411 eV
 662( 0) :     6.122023 a.u.   166.589 eV
 663( 0) :     7.460410 a.u.   203.008 eV
 664( 0) :    29.649939 a.u.   806.816 eV
 665( 0) :    29.717716 a.u.   808.660 eV
 666( 0) :    29.717882 a.u.   808.665 eV
 667( 0) :    29.782796 a.u.   810.431 eV
 668( 0) :    29.793257 a.u.   810.716 eV
 669( 0) :    29.793396 a.u.   810.720 eV
 670( 0) :    29.832353 a.u.   811.780 eV
 671( 0) :    30.009957 a.u.   816.612 eV
 672( 0) :    30.010394 a.u.   816.624 eV
 673( 0) :    30.019186 a.u.   816.864 eV
 674( 0) :    30.035458 a.u.   817.306 eV
 675( 0) :    30.041246 a.u.   817.464 eV
 676( 0) :    30.041312 a.u.   817.466 eV
 677( 0) :    30.108529 a.u.   819.295 eV
 678( 0) :    30.108651 a.u.   819.298 eV
 679( 0) :    30.148960 a.u.   820.395 eV
 680( 0) :    30.240235 a.u.   822.879 eV
 681( 0) :    30.240295 a.u.   822.880 eV
 682( 0) :    30.295792 a.u.   824.390 eV
 683( 0) :    30.295967 a.u.   824.395 eV
 684( 0) :    30.319222 a.u.   825.028 eV
 685( 0) :    30.321323 a.u.   825.085 eV
 686( 0) :    30.329287 a.u.   825.302 eV
 687( 0) :    30.329438 a.u.   825.306 eV
 688( 0) :    30.333843 a.u.   825.426 eV
 689( 0) :    30.338759 a.u.   825.560 eV
 690( 0) :    30.338999 a.u.   825.566 eV
 691( 0) :    36.673687 a.u.   997.942 eV
 692( 0) :    36.681703 a.u.   998.160 eV
 693( 0) :    36.682042 a.u.   998.169 eV
 694( 0) :    36.764068 a.u.  1000.401 eV
 695( 0) :    36.766089 a.u.  1000.456 eV
 696( 0) :    36.774609 a.u.  1000.688 eV
 697( 0) :    36.863031 a.u.  1003.094 eV
 698( 0) :    36.878828 a.u.  1003.524 eV
 699( 0) :    36.878976 a.u.  1003.528 eV
 700( 0) :    36.893343 a.u.  1003.919 eV
 701( 0) :    36.893389 a.u.  1003.920 eV
 702( 0) :    36.893495 a.u.  1003.923 eV
 703( 0) :    36.894550 a.u.  1003.952 eV
 704( 0) :    36.905609 a.u.  1004.253 eV
 705( 0) :    36.905822 a.u.  1004.258 eV
 706( 0) :    36.909009 a.u.  1004.345 eV
 707( 0) :    36.909233 a.u.  1004.351 eV
 708( 0) :    36.939140 a.u.  1005.165 eV
 709( 0) :    36.962171 a.u.  1005.792 eV
 710( 0) :    36.962206 a.u.  1005.793 eV
 711( 0) :    36.978863 a.u.  1006.246 eV
 712( 0) :    36.987475 a.u.  1006.480 eV
 713( 0) :    37.012396 a.u.  1007.158 eV
 714( 0) :    37.012908 a.u.  1007.172 eV
 715( 0) :    37.015764 a.u.  1007.250 eV
 716( 0) :    37.026722 a.u.  1007.548 eV
 717( 0) :    37.032261 a.u.  1007.699 eV
 718( 0) :    37.105366 a.u.  1009.688 eV
 719( 0) :    37.105763 a.u.  1009.699 eV
 720( 0) :    37.111717 a.u.  1009.861 eV
 721( 0) :    37.245800 a.u.  1013.510 eV
 722( 0) :    37.253901 a.u.  1013.730 eV
 723( 0) :    37.269578 a.u.  1014.157 eV
 724( 0) :    37.358519 a.u.  1016.577 eV
 725( 0) :    37.370939 a.u.  1016.915 eV
 726( 0) :    37.371619 a.u.  1016.933 eV
 727( 0) :    41.163235 a.u.  1120.109 eV
-------
TIMINGS
-------

Total SCF time: 0 days 0 hours 1 min 8 sec 

Total time                  ....      68.182 sec
Sum of individual times     ....      64.421 sec  ( 94.5%)

Fock matrix formation       ....      41.415 sec  ( 60.7%)
  Split-RI-J                ....      24.683 sec  ( 59.6% of F)
  XC integration            ....      10.269 sec  ( 24.8% of F)
    Basis function eval.    ....       0.375 sec  (  3.6% of XC)
    Density eval.           ....       1.058 sec  ( 10.3% of XC)
    XC-Functional eval.     ....       0.161 sec  (  1.6% of XC)
    XC-Potential eval.      ....       1.358 sec  ( 13.2% of XC)
Diagonalization             ....       8.216 sec  ( 12.1%)
Density matrix formation    ....       0.611 sec  (  0.9%)
Population analysis         ....       3.907 sec  (  5.7%)
Initial guess               ....       0.801 sec  (  1.2%)
Orbital Transformation      ....       0.000 sec  (  0.0%)
Orbital Orthonormalization  ....       0.000 sec  (  0.0%)
DIIS solution               ....       5.894 sec  (  8.6%)
Grid generation             ....       3.576 sec  (  5.2%)

-------------------------   --------------------
FINAL SINGLE POINT ENERGY     -1103.167877128079
-------------------------   --------------------

   --->>> SOC part of D-tensor requested, so NeedSOC=true

                            ***************************************
                            *     ORCA property calculations      *
                            ***************************************

                                    ---------------------
                                    Active property flags
                                    ---------------------
   (+) Dipole Moment
   (+) D-tensor
   (+) Spin-Orbit Integrals are needed


------------------------------------------------------------------------------
                       ORCA ELECTRIC PROPERTIES CALCULATION
------------------------------------------------------------------------------

Dipole Moment Calculation                       ... on
Quadrupole Moment Calculation                   ... off
Polarizability Calculation                      ... off
GBWName                                         ... zfs.gbw
Electron density file                           ... zfs.scfp
The origin for moment calculation is the CENTER OF MASS  = ( 0.000046, -0.000030 -3.167486)

-------------
DIPOLE MOMENT
-------------
                                X             Y             Z
Electronic contribution:      0.00573       0.00419       1.06645
Nuclear contribution   :     -0.00295       0.00242      -0.32886
                        -----------------------------------------
Total Dipole Moment    :      0.00278       0.00661       0.73758
                        -----------------------------------------
Magnitude (a.u.)       :      0.73762
Magnitude (Debye)      :      1.87488



--------------------
Rotational spectrum 
--------------------
 
Rotational constants in cm-1:     0.009246     0.009141     0.009141 
Rotational constants in MHz :   277.183097   274.048600   274.045280 

 Dipole components along the rotational axes: 
x,y,z [a.u.] :     0.737585     0.000981    -0.006989 
x,y,z [Debye]:     1.874793     0.002495    -0.017766 

 


           ************************************************************
           *        Program running with 72 parallel MPI-processes    *
           *              working on a shared directory               *
           ************************************************************
------------------------------------------------------------------------------
                         ORCA SPIN-ORBIT COUPLING CALCULATION
------------------------------------------------------------------------------

GBW file                                    ... zfs.gbw
Input density                               ... zfs.scfp
Output integrals                            ... zfs
Operator type                               ... Mean-field/Effective potential
   One-Electron Terms                       ... 1
   Coulomb Contribution                     ... 2
   Exchange Contribution                    ... 3
   Correlation Contribution                 ... 0
   Maximum number of centers                ... 4
Setting up the integration grid             ... done
Evaluating density on the grid              ... (NumEl=  205.996617) done
Evaluating Coulomb term semi-analytically   ... done
One-Center Exchange (+SOO)                  ... done
Evaluating the spin-orbit operator          ... done
Total time for SOC: 63.537


           ************************************************************
           *        Program running with 72 parallel MPI-processes    *
           *              working on a shared directory               *
           ************************************************************
------------------------------------------------------------------------------
                                ORCA EPR/NMR CALCULATION
------------------------------------------------------------------------------

GBWName                      ... zfs.gbw
Electron density file        ... zfs.scfp
Spin density file            ... zfs.scfr
Spin-orbit integrals         ... zfs
Multiplicity                 ... 3
g-tensor                     ... 0
NMR chemical shifts          ... 0
D-tensor                     ... spin-spin and spin-orbit
D(SS)-algorithm              ... spin-density from UNOs
D(SOC)-algorithm             ... CP (=Coupled-perturbed)
Active orbitals for UNO spin density= 102 .. 103

Starting the spin-spin zero-field-splitting computation (UNO)...
                        ... done with spin-spin calculation

Starting the spin-orbit zero-field-splitting computation (CP)...
Transforming integrals                       ... Max(Pert)=   5.6126e-06
Warning: Perturbation too small - adjusting
Transforming integrals                       ... Max(Pert)=   6.1122e-05
Warning: Perturbation too small - adjusting
Transforming integrals                       ... Max(Pert)=   6.6561e-04
Warning: Perturbation too small - adjusting
Transforming integrals                       ... Max(Pert)=   7.2485e-03
done
    ... no HF exchange - skipping linear equations
ZFS-Tensor - using the prefactors
   -1/(4S**2) for same spin
    1/(2*S*(2*S-1)) for alpha->beta
    1/((S+1)*(2*S+1)) for beta->alpha
                        ... done with spin-orbit calculation

---------------------------
ZERO-FIELD-SPLITTING TENSOR
---------------------------

raw-matrix : 
   0.019888    -0.000236    -0.000014  
  -0.000236     0.019980    -0.000006  
  -0.000014    -0.000006     0.087160  

Tensor is right-handed
diagonalized D matrix : 
   0.019693     0.020175     0.087160  

   0.771356     0.636404     0.000206  
   0.636404    -0.771356     0.000096  
   0.000220     0.000057    -1.000000  


Direction X=1 Y=0 Z=2
D   =     0.067226  cm**-1
E/D =     0.003581

SPIN-SPIN-PART
                   0          1          2    
      0      -0.021942  -0.000234   0.000003
      1      -0.000234  -0.021862  -0.000009
      2       0.000003  -0.000009   0.043804
Exchange and Coulomb parts of SS (raw)
Coulomb
                   0          1          2    
      0      -0.020913   0.000551   0.000027
      1       0.000551  -0.011303   0.000038
      2       0.000027   0.000038   0.032216
Exchange
                   0          1          2    
      0      -0.001029  -0.000785  -0.000024
      1      -0.000785  -0.010560  -0.000047
      2      -0.000024  -0.000047   0.011588
One-, two-, three- and four-center SS contributions (raw)
One-Center            (AA|AA):
                   0          1          2    
      0      -0.001608   0.000111  -0.000059
      1       0.000111  -0.001432   0.000095
      2      -0.000059   0.000095   0.003040
Two-Center-Coulomb    (AA|BB):
                   0          1          2    
      0      -0.315090   0.041639  -0.001359
      1       0.041639  -0.383815  -0.002072
      2      -0.001359  -0.002072   0.698905
Two-Center-Exchange   (AB|BA):
                   0          1          2    
      0      -0.014316  -0.000972   0.000586
      1      -0.000972  -0.014915   0.000115
      2       0.000586   0.000115   0.029231
Two-Center-hybrid     (AA|AB):
                   0          1          2    
      0       0.001021  -0.000508   0.000205
      1      -0.000508   0.001901  -0.000837
      2       0.000205  -0.000837  -0.002922
Three-Center-Coulomb  (AA|BC):
                   0          1          2    
      0       0.536905  -0.073368   0.006355
      1      -0.073368   0.662301   0.001823
      2       0.006355   0.001823  -1.199205
Three-Center-Exchange (AB|AC):
                   0          1          2    
      0      -0.004223  -0.000125  -0.002090
      1      -0.000125  -0.004056   0.001302
      2      -0.002090   0.001302   0.008279
Four-Center           (AB|CD):
                   0          1          2    
      0      -0.224630   0.032989  -0.003633
      1       0.032989  -0.281847  -0.000433
      2      -0.003633  -0.000433   0.506477
ALPHA-PART
                   0          1          2    
      0      -0.113508  -0.000005   0.000005
      1      -0.000005  -0.113514   0.000004
      2       0.000005   0.000004  -0.108844
BETA-PART
                   0          1          2    
      0      -0.111419  -0.000011   0.000006
      1      -0.000011  -0.111416   0.000013
      2       0.000006   0.000013  -0.104874
ALPHA->BETA-PART
                   0          1          2    
      0       0.230143   0.000009  -0.000028
      1       0.000009   0.230160  -0.000011
      2      -0.000028  -0.000011   0.222858
BETA->ALPHA-PART
                   0          1          2    
      0       0.036614   0.000004   0.000000
      1       0.000004   0.036613  -0.000004
      2       0.000000  -0.000004   0.034217

Individual contributions (in cm**-1)
                                   D         E
SPIN-SPIN                  :   0.06571    0.00024
  Exchange vs Coulomb
  Coulomb                  :   0.04832    0.00037
  Exchange                 :   0.01738   -0.00014
  One through four center contributions:
  1-center                 :   0.00456   -0.00009
  2-center-Coulomb         :   1.04836   -0.04741
  2-center-Exchange        :   0.04385    0.00090
  2-center-Hybrid          :  -0.00438    0.00058
  3-center-Coulomb         :  -1.79881    0.08394
  3-center-Exchange        :   0.01242    0.00014
  4-center                 :   0.75972   -0.03782
SPIN-ORBIT                 :   0.00152    0.00000
SOMO->VMO  (alpha->alpha)  :   0.00467    0.00000
DOMO->SOMO (beta ->beta )  :   0.00654    0.00001
SOMO->SOMO (alpha->beta )  :  -0.00729   -0.00001
DOMO->VMO  (beta ->alpha)  :  -0.00240   -0.00000


Timings for individual modules:

Sum of individual times         ...      261.845 sec (=   4.364 min)
GTO integral calculation        ...       15.534 sec (=   0.259 min)   5.9 %
Spin-Orbit-Coupling Matrices    ...       63.527 sec (=   1.059 min)  24.3 %
SCF iterations                  ...       74.962 sec (=   1.249 min)  28.6 %
EPR/NMR calculation             ...      107.823 sec (=   1.797 min)  41.2 %
                             ****ORCA TERMINATED NORMALLY****
TOTAL RUN TIME: 0 days 0 hours 4 minutes 38 seconds 963 msec
