
                                 *****************
                                 * O   R   C   A *
                                 *****************

           --- An Ab Initio, DFT and Semiempirical electronic structure package ---

                  #######################################################
                  #                        -***-                        #
                  #          Department of theory and spectroscopy      #
                  #               Directorship: Frank Neese             #
                  #        Max Planck Institute fuer Kohlenforschung    #
                  #                Kaiser Wilhelm Platz 1               #
                  #                 D-45470 Muelheim/Ruhr               #
                  #                      Germany                        #
                  #                                                     #
                  #                  All rights reserved                #
                  #                        -***-                        #
                  #######################################################


                         Program Version 4.2.1 -  RELEASE  -


 With contributions from (in alphabetic order):
   Daniel Aravena         : Magnetic Suceptibility
   Michael Atanasov       : Ab Initio Ligand Field Theory (pilot matlab implementation)
   Alexander A. Auer      : GIAO ZORA, VPT2
   Ute Becker             : Parallelization
   Giovanni Bistoni       : ED, misc. LED, open-shell LED, HFLD
   Martin Brehm           : Molecular dynamics
   Dmytro Bykov           : SCF Hessian
   Vijay G. Chilkuri      : MRCI spin determinant printing, contributions to CSF-ICE
   Dipayan Datta          : RHF DLPNO-CCSD density
   Achintya Kumar Dutta   : EOM-CC, STEOM-CC
   Dmitry Ganyushin       : Spin-Orbit,Spin-Spin,Magnetic field MRCI
   Miquel Garcia          : C-PCM Hessian, Gaussian charge scheme
   Yang Guo               : DLPNO-NEVPT2, CIM, IAO-localization
   Andreas Hansen         : Spin unrestricted coupled pair/coupled cluster methods
   Benjamin Helmich-Paris : CASSCF linear response (MC-RPA)
   Lee Huntington         : MR-EOM, pCC
   Robert Izsak           : Overlap fitted RIJCOSX, COSX-SCS-MP3, EOM
   Christian Kollmar      : KDIIS, OOCD, Brueckner-CCSD(T), CCSD density
   Simone Kossmann        : Meta GGA functionals, TD-DFT gradient, OOMP2, MP2 Hessian
   Martin Krupicka        : AUTO-CI
   Lucas Lang             : DCDCAS
   Dagmar Lenk            : GEPOL surface, SMD
   Dimitrios Liakos       : Extrapolation schemes; Compound Job, initial MDCI parallelization
   Dimitrios Manganas     : Further ROCIS development; embedding schemes
   Dimitrios Pantazis     : SARC Basis sets
   Taras Petrenko         : DFT Hessian,TD-DFT gradient, ASA, ECA, R-Raman, ABS, FL, XAS/XES, NRVS
   Peter Pinski           : DLPNO-MP2, DLPNO-MP2 Gradient
   Christoph Reimann      : Effective Core Potentials
   Marius Retegan         : Local ZFS, SOC
   Christoph Riplinger    : Optimizer, TS searches, QM/MM, DLPNO-CCSD(T), (RO)-DLPNO pert. Triples
   Tobias Risthaus        : Range-separated hybrids, TD-DFT gradient, RPA, STAB
   Michael Roemelt        : Original ROCIS implementation
   Masaaki Saitow         : Open-shell DLPNO-CCSD energy and density
   Barbara Sandhoefer     : DKH picture change effects
   Avijit Sen             : IP-ROCIS
   Kantharuban Sivalingam : CASSCF convergence, NEVPT2, FIC-MRCI
   Bernardo de Souza      : ESD, SOC TD-DFT
   Georgi Stoychev        : AutoAux, RI-MP2 NMR
   Willem Van den Heuvel  : Paramagnetic NMR
   Boris Wezisla          : Elementary symmetry handling
   Frank Wennmohs         : Technical directorship


 We gratefully acknowledge several colleagues who have allowed us to
 interface, adapt or use parts of their codes:
   Stefan Grimme, W. Hujo, H. Kruse,             : VdW corrections, initial TS optimization,
                  C. Bannwarth                     DFT functionals, gCP, sTDA/sTD-DF
   Ed Valeev, F. Pavosevic, A. Kumar             : LibInt (2-el integral package), F12 methods
   Garnet Chan, S. Sharma, J. Yang, R. Olivares  : DMRG
   Ulf Ekstrom                                   : XCFun DFT Library
   Mihaly Kallay                                 : mrcc  (arbitrary order and MRCC methods)
   Andreas Klamt, Michael Diedenhofen            : otool_cosmo (COSMO solvation model)
   Jiri Pittner, Ondrej Demel                    : Mk-CCSD
   Frank Weinhold                                : gennbo (NPA and NBO analysis)
   Christopher J. Cramer and Donald G. Truhlar   : smd solvation model
   Lars Goerigk                                  : TD-DFT with DH, B97 family of functionals
   V. Asgeirsson, H. Jonsson                     : NEB implementation
   FAccTs GmbH                                   : IRC, NEB, NEB-TS, Multilevel, MM, QM/MM, CI optimization
   S Lehtola, MJT Oliveira, MAL Marques          : LibXC Library


 Your calculation uses the libint2 library for the computation of 2-el integrals
 For citations please refer to: http://libint.valeyev.net

 Your ORCA version has been built with support for libXC version: 4.2.3
 For citations please refer to: https://tddft.org/programs/libxc/

 This ORCA versions uses:
   CBLAS   interface :  Fast vector & matrix operations
   LAPACKE interface :  Fast linear algebra routines
   SCALAPACK package :  Parallel linear algebra routines




***************************************
The coordinates will be read from file: nv.xyz
***************************************


----- Orbital basis set information -----
Your calculation utilizes the basis: EPR-II
   V. Barone, in Recent Advances in Density Functional Methods, Part 1 (ed. D. P. Chong), World Scientific, Singapore, 1995, p. 287.

----- AuxJ basis set information -----
Your calculation utilizes the AutoAux generation procedure.
  G. L. Stoychev, A. A. Auer, F. Neese, J. Chem. Theory Comput. 13, 554 (2017)

----- AuxC basis set information -----
Your calculation utilizes the AutoAux generation procedure.
  G. L. Stoychev, A. A. Auer, F. Neese, J. Chem. Theory Comput. 13, 554 (2017)

----- AuxJK basis set information -----
Your calculation utilizes the AutoAux generation procedure.
  G. L. Stoychev, A. A. Auer, F. Neese, J. Chem. Theory Comput. 13, 554 (2017)

================================================================================
                                        WARNINGS
                       Please study these warnings very carefully!
================================================================================


WARNING: your system is open-shell and RHF/RKS was chosen
  ===> : WILL SWITCH to UHF/UKS


INFO   : the flag for use of LIBINT has been found!

================================================================================
                                       INPUT FILE
================================================================================
NAME = zfs.in
|  1> # Use EPR-II is a special basis set for epr, autoaux creates a large auxiliary basis
|  2> !PBE EPR-II AUTOAUX RIJCOSX
|  3> 
|  4> # use original (unoptimized) cluster xyz
|  5> *xyzfile -1 3 nv.xyz
|  6> 
|  7> # Parallelization
|  8> %PAL NPROCS 72 END
|  9> 
| 10> # ZFS calculation
| 11> %EPRNMR DTENSOR SSANDSO
| 12>     DSS     UNO
| 13>     DSOC    CP
| 14> END
| 15> 
| 16>                          ****END OF INPUT****
================================================================================

                       ****************************
                       * Single Point Calculation *
                       ****************************

---------------------------------
CARTESIAN COORDINATES (ANGSTROEM)
---------------------------------
  C     -0.200930    1.526441   -2.249811
  C      1.154793    0.886182   -4.258023
  C     -2.682397    1.111201   -2.199697
  C      0.378904   -2.878536   -2.199804
  C      2.303466    1.767494   -2.199700
  C     -2.479044   -0.333632   -0.144983
  C      2.480936    0.319254   -0.144986
  C     -0.963988   -2.308176   -0.145035
  C      0.950582    2.313736   -0.144933
  C     -1.516950    1.988932   -0.144931
  C      1.528460   -1.980093   -0.145037
  C      1.128072    0.865552    0.395617
  C      0.185565   -1.409729    0.395566
  C     -1.313633    0.544148    0.395618
  C     -1.157690   -0.888186   -3.737621
  C     -0.190449    1.446804   -3.737569
  C      1.348092   -0.558348   -3.737623
  C     -2.478322   -0.332787   -1.693673
  C      2.480017    0.319884   -1.693676
  C     -0.963025   -2.307645   -1.693726
  C      0.950912    2.312738   -1.693623
  C     -1.517013    1.987884   -1.693621
  C      1.527389   -1.979829   -1.693727
  C     -1.221438   -0.937140   -2.249865
  C      1.422340   -0.589137   -2.249867
  C     -1.344791    0.557160   -4.258021
  C      0.189945   -1.443033   -4.258075
  N      0.000000    0.000000    0.000000
  H      1.956961    1.501670   -3.907906
  H      1.149102    0.881844   -5.328003
  H     -2.698620    1.117945   -3.269544
  H     -3.611122    1.495906   -1.833101
  H      0.509781   -3.872798   -1.826663
  H      0.382106   -2.902869   -3.269519
  H      2.317389    1.778207   -3.269548
  H      3.101002    2.379428   -1.833106
  H     -2.358467   -1.336661    0.207581
  H     -3.407797    0.067870    0.203028
  H      3.278367    0.939352    0.207839
  H      2.615394   -0.683685    0.202756
  H     -0.825673   -3.308833    0.207753
  H     -1.899778   -1.923161    0.202744
  H      0.021655    2.710817    0.207668
  H      1.762679    2.917297    0.203076
  H     -2.452692    2.369465    0.207895
  H     -0.715613    2.606831    0.202848
  H      2.336814   -1.374171    0.207562
  H      1.645121   -2.985181    0.202936
  H      1.137988    0.873131    1.465539
  H      0.187200   -1.422140    1.465488
  H     -1.325170    0.548903    1.465541
  H     -1.954960   -1.499916   -4.105093
  H     -0.321598    2.443138   -4.105005
  H      2.276507   -0.942925   -4.105096
  H     -3.286092   -0.943260   -2.039696
  H      3.418249   -0.060762   -2.039701
  H     -1.761799   -2.929843   -2.039749
  H      0.826101    3.317536   -2.039611
  H     -1.656475    2.990753   -2.039609
  H      2.459965   -2.374128   -2.039752
  H     -1.338384    0.554529   -5.328007
  H     -2.278849    0.944074   -3.907684
  H      0.321899   -2.445486   -3.907994
  H      0.189005   -1.435900   -5.328055

----------------------------
CARTESIAN COORDINATES (A.U.)
----------------------------
  NO LB      ZA    FRAG     MASS         X           Y           Z
   0 C     6.0000    0    12.011   -0.379703    2.884555   -4.251526
   1 C     6.0000    0    12.011    2.182243    1.674641   -8.046497
   2 C     6.0000    0    12.011   -5.068996    2.099866   -4.156825
   3 C     6.0000    0    12.011    0.716025   -5.439645   -4.157026
   4 C     6.0000    0    12.011    4.352919    3.340080   -4.156831
   5 C     6.0000    0    12.011   -4.684714   -0.630473   -0.273977
   6 C     6.0000    0    12.011    4.688290    0.603303   -0.273984
   7 C     6.0000    0    12.011   -1.821674   -4.361821   -0.274077
   8 C     6.0000    0    12.011    1.796340    4.372327   -0.273883
   9 C     6.0000    0    12.011   -2.866619    3.758538   -0.273880
  10 C     6.0000    0    12.011    2.888370   -3.741834   -0.274081
  11 C     6.0000    0    12.011    2.131748    1.635656    0.747607
  12 C     6.0000    0    12.011    0.350667   -2.664001    0.747512
  13 C     6.0000    0    12.011   -2.482406    1.028291    0.747611
  14 C     6.0000    0    12.011   -2.187717   -1.678428   -7.063080
  15 C     6.0000    0    12.011   -0.359896    2.734064   -7.062982
  16 C     6.0000    0    12.011    2.547525   -1.055124   -7.063084
  17 C     6.0000    0    12.011   -4.683350   -0.628875   -3.200578
  18 C     6.0000    0    12.011    4.686553    0.604493   -3.200585
  19 C     6.0000    0    12.011   -1.819854   -4.360816   -3.200678
  20 C     6.0000    0    12.011    1.796963    4.370442   -3.200484
  21 C     6.0000    0    12.011   -2.866739    3.756555   -3.200481
  22 C     6.0000    0    12.011    2.886347   -3.741335   -3.200681
  23 C     6.0000    0    12.011   -2.308184   -1.770938   -4.251629
  24 C     6.0000    0    12.011    2.687833   -1.113308   -4.251633
  25 C     6.0000    0    12.011   -2.541287    1.052879   -8.046494
  26 C     6.0000    0    12.011    0.358943   -2.726937   -8.046595
  27 N     7.0000    0    14.007    0.000000    0.000000    0.000000
  28 H     1.0000    0     1.008    3.698120    2.837745   -7.384872
  29 H     1.0000    0     1.008    2.171487    1.666443  -10.068467
  30 H     1.0000    0     1.008   -5.099653    2.112610   -6.178543
  31 H     1.0000    0     1.008   -6.824031    2.826853   -3.464060
  32 H     1.0000    0     1.008    0.963346   -7.318527   -3.451893
  33 H     1.0000    0     1.008    0.722076   -5.485627   -6.178495
  34 H     1.0000    0     1.008    4.379230    3.360323   -6.178550
  35 H     1.0000    0     1.008    5.860044    4.496468   -3.464069
  36 H     1.0000    0     1.008   -4.456857   -2.525923    0.392271
  37 H     1.0000    0     1.008   -6.439802    0.128255    0.383668
  38 H     1.0000    0     1.008    6.195216    1.775119    0.392758
  39 H     1.0000    0     1.008    4.942378   -1.291977    0.383154
  40 H     1.0000    0     1.008   -1.560295   -6.252788    0.392597
  41 H     1.0000    0     1.008   -3.590061   -3.634248    0.383131
  42 H     1.0000    0     1.008    0.040923    5.122702    0.392436
  43 H     1.0000    0     1.008    3.330980    5.512892    0.383759
  44 H     1.0000    0     1.008   -4.634916    4.477640    0.392864
  45 H     1.0000    0     1.008   -1.352313    4.926197    0.383326
  46 H     1.0000    0     1.008    4.415939   -2.596807    0.392235
  47 H     1.0000    0     1.008    3.108827   -5.641175    0.383494
  48 H     1.0000    0     1.008    2.150485    1.649978    2.769468
  49 H     1.0000    0     1.008    0.353757   -2.687455    2.769372
  50 H     1.0000    0     1.008   -2.504208    1.037277    2.769471
  51 H     1.0000    0     1.008   -3.694339   -2.834431   -7.757501
  52 H     1.0000    0     1.008   -0.607732    4.616861   -7.757336
  53 H     1.0000    0     1.008    4.301975   -1.781869   -7.757507
  54 H     1.0000    0     1.008   -6.209814   -1.782503   -3.854467
  55 H     1.0000    0     1.008    6.459555   -0.114824   -3.854476
  56 H     1.0000    0     1.008   -3.329318   -5.536601   -3.854568
  57 H     1.0000    0     1.008    1.561105    6.269235   -3.854305
  58 H     1.0000    0     1.008   -3.130285    5.651703   -3.854302
  59 H     1.0000    0     1.008    4.648661   -4.486453   -3.854573
  60 H     1.0000    0     1.008   -2.529179    1.047909  -10.068475
  61 H     1.0000    0     1.008   -4.306400    1.784042   -7.384452
  62 H     1.0000    0     1.008    0.608302   -4.621299   -7.385038
  63 H     1.0000    0     1.008    0.357167   -2.713457  -10.068564

--------------------------------
INTERNAL COORDINATES (ANGSTROEM)
--------------------------------
 C      0   0   0     0.000000000000     0.00000000     0.00000000
 C      1   0   0     2.506159188526     0.00000000     0.00000000
 C      1   2   0     2.516468737455   120.47980031     0.00000000
 C      2   1   3     4.360203420716    75.28951500   283.77948099
 C      1   2   3     2.516468891697    60.13666440   174.71907253
 C      3   1   2     2.520068779654    91.79194712   121.28833099
 C      5   1   2     2.520068762756    91.79201992   236.05607765
 C      6   3   1     2.488818368223   120.26272268   304.19020212
 C      7   5   1     2.513948947361    60.08027954   306.41229827
 C      9   7   5     2.488817352753   120.00002880   109.82545100
 C      7   5   1     2.488816776763   120.26270161    55.80983236
 C      7   5   1     1.555934701728    91.16206224   325.68709311
 C      8   6   3     1.555934052691    89.52038813    91.06561730
 C      6   3   1     1.555934061399    91.16212213    34.31292441
 C      3   1   2     2.947455098615    65.88562640    32.41919375
 C      1   2   3     1.489925410446    35.15414078   323.08151358
 C      2   1   3     1.547529030547    92.09616884   273.73521376
 C      3   1   2     1.543634497670    91.74891423    85.78589528
 C      5   1   2     1.543634474738    91.74900366   271.55851522
 C      4   2   1     1.543634426528    89.43441785    30.89183770
 C      1   2   3     1.501448810151    90.89532353   191.81515946
 C      1   2   3     1.501449344954   148.15946931   329.09681939
 C      4   2   1     1.543633746648    61.29331666   278.87882692
 C     15   3   1     1.489925437896    58.60967738    79.25168916
 C     17   2   1     1.489925476664   111.18022711   326.95804091
 C     16   1   2     1.547528290605   111.18021291   121.75553486
 C     17   2   1     1.547528292108   109.09004218    89.92306831
 N     12   7   5     1.475886139196   111.44049747    93.52608413
 H      2   1   3     1.069990717047    89.79352599   164.26253075
 H      2   1   3     1.070004294788   143.07770563    40.86734309
 H      3   1   2     1.069991509781    89.65616669   336.17389649
 H      3   1   2     1.070008907420   143.45442866   213.40182390
 H      4   2   1     1.070008629694   160.93593851   213.27452146
 H      4   2   1     1.069996784565    63.07524133   143.53512798
 H     29   2   1     0.783506148113   144.53757491    32.14134807
 H      5   1   2     1.070008457195   143.45441154   143.94258784
 H      6   3   1     1.070002931538   144.60622173   267.56155981
 H      6   3   1     1.069998801523    88.85452190   143.28877487
 H      7   5   1     1.070001690685    89.32902226   216.43024004
 H      7   5   1     1.069995563796   144.34073003    91.60649904
 H      8   6   3     1.070002207152   145.14813578   215.49452432
 H     37   6   3     0.744581473448   143.67474235    62.06104384
 H      9   7   5     1.070002897794   145.37732653   145.27378864
 H      9   7   5     1.069998336647    89.16959393   270.84373778
 H     10   9   7     1.070002153055   145.14812970   144.76011285
 H     43   9   7     0.744581167061   143.67473623   300.54055372
 H     40   7   5     0.744581003238   145.51897262   298.58473518
 H     11   7   5     1.069998826698   145.69948102   144.51454585
 H     12   7   5     1.069995472810   109.98972410   211.05044891
 H     13   8   6     1.069995477088   109.98975803    90.79100387
 H     14   6   3     1.069995466062   109.98975813   148.94952878
 H     15   3   1     1.069995020677   100.46116415   182.87308407
 H     16   1   2     1.069995530634   106.99377717   240.87773462
 H     17   2   1     1.069995469963   109.17096222   209.14698707
 H     18   3   1     1.070001082731   109.14081202   209.46733765
 H     19   5   1     1.070001543997   109.14088147   150.53266269
 H     20   4   2     1.070001076510   109.14085337   120.92648834
 H     21   1   2     1.070001583713   106.41034513    92.35939568
 H     22   1   2     1.070001595948   106.41041638   291.94871444
 H     23   4   2     1.070001549361   109.14085325   258.30749262
 H     26  16   1     1.070008557447   109.46621818   177.47400824
 H     31   3   1     0.783365299871   143.60830338    31.99437329
 H     34   4   2     0.787701494559   142.83583387   341.07939133
 H     27  17   2     1.070004297029   109.46009781    59.54970986

---------------------------
INTERNAL COORDINATES (A.U.)
---------------------------
 C      0   0   0     0.000000000000     0.00000000     0.00000000
 C      1   0   0     4.735954514324     0.00000000     0.00000000
 C      1   2   0     4.755436738365   120.47980031     0.00000000
 C      2   1   3     8.239590353340    75.28951500   283.77948099
 C      1   2   3     4.755437029840    60.13666440   174.71907253
 C      3   1   2     4.762239832191    91.79194712   121.28833099
 C      5   1   2     4.762239800259    91.79201992   236.05607765
 C      6   3   1     4.703185113014   120.26272268   304.19020212
 C      7   5   1     4.750675025172    60.08027954   306.41229827
 C      9   7   5     4.703183194055   120.00002880   109.82545100
 C      7   5   1     4.703182105591   120.26270161    55.80983236
 C      7   5   1     2.940290468530    91.16206224   325.68709311
 C      8   6   3     2.940289242028    89.52038813    91.06561730
 C      6   3   1     2.940289258483    91.16212213    34.31292441
 C      3   1   2     5.569882928413    65.88562640    32.41919375
 C      1   2   3     2.815550985713    35.15414078   323.08151358
 C      2   1   3     2.924406052026    92.09616884   273.73521376
 C      3   1   2     2.917046451469    91.74891423    85.78589528
 C      5   1   2     2.917046408134    91.74900366   271.55851522
 C      4   2   1     2.917046317030    89.43441785    30.89183770
 C      1   2   3     2.837327055288    90.89532353   191.81515946
 C      1   2   3     2.837328065918   148.15946931   329.09681939
 C      4   2   1     2.917045032243    61.29331666   278.87882692
 C     15   3   1     2.815551037586    58.60967738    79.25168916
 C     17   2   1     2.815551110847   111.18022711   326.95804091
 C     16   1   2     2.924404653738   111.18021291   121.75553486
 C     17   2   1     2.924404656580   109.09004218    89.92306831
 N     12   7   5     2.789020607931   111.44049747    93.52608413
 H      2   1   3     2.021989421057    89.79352599   164.26253075
 H      2   1   3     2.022015079268   143.07770563    40.86734309
 H      3   1   2     2.021990919107    89.65616669   336.17389649
 H      3   1   2     2.022023795880   143.45442866   213.40182390
 H      4   2   1     2.022023271053   160.93593851   213.27452146
 H      4   2   1     2.022000887003    63.07524133   143.53512798
 H     29   2   1     1.480612044177   144.53757491    32.14134807
 H      5   1   2     2.022022945078   143.45441154   143.94258784
 H      6   3   1     2.022012503099   144.60622173   267.56155981
 H      6   3   1     2.022004698503    88.85452190   143.28877487
 H      7   5   1     2.022010158228    89.32902226   216.43024004
 H      7   5   1     2.021998580086   144.34073003    91.60649904
 H      8   6   3     2.022011134209   145.14813578   215.49452432
 H     37   6   3     1.407055069209   143.67474235    62.06104384
 H      9   7   5     2.022012439334   145.37732653   145.27378864
 H      9   7   5     2.022003820015    89.16959393   270.84373778
 H     10   9   7     2.022011031981   145.14812970   144.76011285
 H     43   9   7     1.407054490220   143.67473623   300.54055372
 H     40   7   5     1.407054180639   145.51897262   298.58473518
 H     11   7   5     2.022004746075   145.69948102   144.51454585
 H     12   7   5     2.021998408146   109.98972410   211.05044891
 H     13   8   6     2.021998416231   109.98975803    90.79100387
 H     14   6   3     2.021998395394   109.98975813   148.94952878
 H     15   3   1     2.021997553739   100.46116415   182.87308407
 H     16   1   2     2.021998517419   106.99377717   240.87773462
 H     17   2   1     2.021998402766   109.17096222   209.14698707
 H     18   3   1     2.022009009361   109.14081202   209.46733765
 H     19   5   1     2.022009881027   109.14088147   150.53266269
 H     20   4   2     2.022008997605   109.14085337   120.92648834
 H     21   1   2     2.022009956079   106.41034513    92.35939568
 H     22   1   2     2.022009979200   106.41041638   291.94871444
 H     23   4   2     2.022009891165   109.14085325   258.30749262
 H     26  16   1     2.022023134527   109.46621818   177.47400824
 H     31   3   1     1.480345879573   143.60830338    31.99437329
 H     34   4   2     1.488540099997   142.83583387   341.07939133
 H     27  17   2     2.022015083504   109.46009781    59.54970986

---------------------
BASIS SET INFORMATION
---------------------
There are 3 groups of distinct atoms

 Group   1 Type C   : 10s5p1d contracted to 6s2p1d pattern {511111/41/1}
 Group   2 Type N   : 10s5p1d contracted to 6s2p1d pattern {511111/41/1}
 Group   3 Type H   : 6s1p contracted to 4s1p pattern {3111/1}

Atom   0C    basis set group =>   1
Atom   1C    basis set group =>   1
Atom   2C    basis set group =>   1
Atom   3C    basis set group =>   1
Atom   4C    basis set group =>   1
Atom   5C    basis set group =>   1
Atom   6C    basis set group =>   1
Atom   7C    basis set group =>   1
Atom   8C    basis set group =>   1
Atom   9C    basis set group =>   1
Atom  10C    basis set group =>   1
Atom  11C    basis set group =>   1
Atom  12C    basis set group =>   1
Atom  13C    basis set group =>   1
Atom  14C    basis set group =>   1
Atom  15C    basis set group =>   1
Atom  16C    basis set group =>   1
Atom  17C    basis set group =>   1
Atom  18C    basis set group =>   1
Atom  19C    basis set group =>   1
Atom  20C    basis set group =>   1
Atom  21C    basis set group =>   1
Atom  22C    basis set group =>   1
Atom  23C    basis set group =>   1
Atom  24C    basis set group =>   1
Atom  25C    basis set group =>   1
Atom  26C    basis set group =>   1
Atom  27N    basis set group =>   2
Atom  28H    basis set group =>   3
Atom  29H    basis set group =>   3
Atom  30H    basis set group =>   3
Atom  31H    basis set group =>   3
Atom  32H    basis set group =>   3
Atom  33H    basis set group =>   3
Atom  34H    basis set group =>   3
Atom  35H    basis set group =>   3
Atom  36H    basis set group =>   3
Atom  37H    basis set group =>   3
Atom  38H    basis set group =>   3
Atom  39H    basis set group =>   3
Atom  40H    basis set group =>   3
Atom  41H    basis set group =>   3
Atom  42H    basis set group =>   3
Atom  43H    basis set group =>   3
Atom  44H    basis set group =>   3
Atom  45H    basis set group =>   3
Atom  46H    basis set group =>   3
Atom  47H    basis set group =>   3
Atom  48H    basis set group =>   3
Atom  49H    basis set group =>   3
Atom  50H    basis set group =>   3
Atom  51H    basis set group =>   3
Atom  52H    basis set group =>   3
Atom  53H    basis set group =>   3
Atom  54H    basis set group =>   3
Atom  55H    basis set group =>   3
Atom  56H    basis set group =>   3
Atom  57H    basis set group =>   3
Atom  58H    basis set group =>   3
Atom  59H    basis set group =>   3
Atom  60H    basis set group =>   3
Atom  61H    basis set group =>   3
Atom  62H    basis set group =>   3
Atom  63H    basis set group =>   3
---------------------------------
AUXILIARY/J BASIS SET INFORMATION
---------------------------------
There are 3 groups of distinct atoms

 Group   1 Type C   : 17s13p12d2f contracted to 17s13p12d2f pattern {11111111111111111/1111111111111/111111111111/11}
 Group   2 Type N   : 17s13p12d2f contracted to 17s13p12d2f pattern {11111111111111111/1111111111111/111111111111/11}
 Group   3 Type H   : 15s6p1d contracted to 15s6p1d pattern {111111111111111/111111/1}

Atom   0C    basis set group =>   1
Atom   1C    basis set group =>   1
Atom   2C    basis set group =>   1
Atom   3C    basis set group =>   1
Atom   4C    basis set group =>   1
Atom   5C    basis set group =>   1
Atom   6C    basis set group =>   1
Atom   7C    basis set group =>   1
Atom   8C    basis set group =>   1
Atom   9C    basis set group =>   1
Atom  10C    basis set group =>   1
Atom  11C    basis set group =>   1
Atom  12C    basis set group =>   1
Atom  13C    basis set group =>   1
Atom  14C    basis set group =>   1
Atom  15C    basis set group =>   1
Atom  16C    basis set group =>   1
Atom  17C    basis set group =>   1
Atom  18C    basis set group =>   1
Atom  19C    basis set group =>   1
Atom  20C    basis set group =>   1
Atom  21C    basis set group =>   1
Atom  22C    basis set group =>   1
Atom  23C    basis set group =>   1
Atom  24C    basis set group =>   1
Atom  25C    basis set group =>   1
Atom  26C    basis set group =>   1
Atom  27N    basis set group =>   2
Atom  28H    basis set group =>   3
Atom  29H    basis set group =>   3
Atom  30H    basis set group =>   3
Atom  31H    basis set group =>   3
Atom  32H    basis set group =>   3
Atom  33H    basis set group =>   3
Atom  34H    basis set group =>   3
Atom  35H    basis set group =>   3
Atom  36H    basis set group =>   3
Atom  37H    basis set group =>   3
Atom  38H    basis set group =>   3
Atom  39H    basis set group =>   3
Atom  40H    basis set group =>   3
Atom  41H    basis set group =>   3
Atom  42H    basis set group =>   3
Atom  43H    basis set group =>   3
Atom  44H    basis set group =>   3
Atom  45H    basis set group =>   3
Atom  46H    basis set group =>   3
Atom  47H    basis set group =>   3
Atom  48H    basis set group =>   3
Atom  49H    basis set group =>   3
Atom  50H    basis set group =>   3
Atom  51H    basis set group =>   3
Atom  52H    basis set group =>   3
Atom  53H    basis set group =>   3
Atom  54H    basis set group =>   3
Atom  55H    basis set group =>   3
Atom  56H    basis set group =>   3
Atom  57H    basis set group =>   3
Atom  58H    basis set group =>   3
Atom  59H    basis set group =>   3
Atom  60H    basis set group =>   3
Atom  61H    basis set group =>   3
Atom  62H    basis set group =>   3
Atom  63H    basis set group =>   3
---------------------------------
AUXILIARY/C BASIS SET INFORMATION
---------------------------------
There are 3 groups of distinct atoms

 Group   1 Type C   : 17s13p12d2f contracted to 17s13p12d2f pattern {11111111111111111/1111111111111/111111111111/11}
 Group   2 Type N   : 17s13p12d2f contracted to 17s13p12d2f pattern {11111111111111111/1111111111111/111111111111/11}
 Group   3 Type H   : 15s6p1d contracted to 15s6p1d pattern {111111111111111/111111/1}

Atom   0C    basis set group =>   1
Atom   1C    basis set group =>   1
Atom   2C    basis set group =>   1
Atom   3C    basis set group =>   1
Atom   4C    basis set group =>   1
Atom   5C    basis set group =>   1
Atom   6C    basis set group =>   1
Atom   7C    basis set group =>   1
Atom   8C    basis set group =>   1
Atom   9C    basis set group =>   1
Atom  10C    basis set group =>   1
Atom  11C    basis set group =>   1
Atom  12C    basis set group =>   1
Atom  13C    basis set group =>   1
Atom  14C    basis set group =>   1
Atom  15C    basis set group =>   1
Atom  16C    basis set group =>   1
Atom  17C    basis set group =>   1
Atom  18C    basis set group =>   1
Atom  19C    basis set group =>   1
Atom  20C    basis set group =>   1
Atom  21C    basis set group =>   1
Atom  22C    basis set group =>   1
Atom  23C    basis set group =>   1
Atom  24C    basis set group =>   1
Atom  25C    basis set group =>   1
Atom  26C    basis set group =>   1
Atom  27N    basis set group =>   2
Atom  28H    basis set group =>   3
Atom  29H    basis set group =>   3
Atom  30H    basis set group =>   3
Atom  31H    basis set group =>   3
Atom  32H    basis set group =>   3
Atom  33H    basis set group =>   3
Atom  34H    basis set group =>   3
Atom  35H    basis set group =>   3
Atom  36H    basis set group =>   3
Atom  37H    basis set group =>   3
Atom  38H    basis set group =>   3
Atom  39H    basis set group =>   3
Atom  40H    basis set group =>   3
Atom  41H    basis set group =>   3
Atom  42H    basis set group =>   3
Atom  43H    basis set group =>   3
Atom  44H    basis set group =>   3
Atom  45H    basis set group =>   3
Atom  46H    basis set group =>   3
Atom  47H    basis set group =>   3
Atom  48H    basis set group =>   3
Atom  49H    basis set group =>   3
Atom  50H    basis set group =>   3
Atom  51H    basis set group =>   3
Atom  52H    basis set group =>   3
Atom  53H    basis set group =>   3
Atom  54H    basis set group =>   3
Atom  55H    basis set group =>   3
Atom  56H    basis set group =>   3
Atom  57H    basis set group =>   3
Atom  58H    basis set group =>   3
Atom  59H    basis set group =>   3
Atom  60H    basis set group =>   3
Atom  61H    basis set group =>   3
Atom  62H    basis set group =>   3
Atom  63H    basis set group =>   3
----------------------------------
AUXILIARY/JK BASIS SET INFORMATION
----------------------------------
There are 3 groups of distinct atoms

 Group   1 Type C   : 17s13p12d2f contracted to 17s13p12d2f pattern {11111111111111111/1111111111111/111111111111/11}
 Group   2 Type N   : 17s13p12d2f contracted to 17s13p12d2f pattern {11111111111111111/1111111111111/111111111111/11}
 Group   3 Type H   : 15s6p1d contracted to 15s6p1d pattern {111111111111111/111111/1}

Atom   0C    basis set group =>   1
Atom   1C    basis set group =>   1
Atom   2C    basis set group =>   1
Atom   3C    basis set group =>   1
Atom   4C    basis set group =>   1
Atom   5C    basis set group =>   1
Atom   6C    basis set group =>   1
Atom   7C    basis set group =>   1
Atom   8C    basis set group =>   1
Atom   9C    basis set group =>   1
Atom  10C    basis set group =>   1
Atom  11C    basis set group =>   1
Atom  12C    basis set group =>   1
Atom  13C    basis set group =>   1
Atom  14C    basis set group =>   1
Atom  15C    basis set group =>   1
Atom  16C    basis set group =>   1
Atom  17C    basis set group =>   1
Atom  18C    basis set group =>   1
Atom  19C    basis set group =>   1
Atom  20C    basis set group =>   1
Atom  21C    basis set group =>   1
Atom  22C    basis set group =>   1
Atom  23C    basis set group =>   1
Atom  24C    basis set group =>   1
Atom  25C    basis set group =>   1
Atom  26C    basis set group =>   1
Atom  27N    basis set group =>   2
Atom  28H    basis set group =>   3
Atom  29H    basis set group =>   3
Atom  30H    basis set group =>   3
Atom  31H    basis set group =>   3
Atom  32H    basis set group =>   3
Atom  33H    basis set group =>   3
Atom  34H    basis set group =>   3
Atom  35H    basis set group =>   3
Atom  36H    basis set group =>   3
Atom  37H    basis set group =>   3
Atom  38H    basis set group =>   3
Atom  39H    basis set group =>   3
Atom  40H    basis set group =>   3
Atom  41H    basis set group =>   3
Atom  42H    basis set group =>   3
Atom  43H    basis set group =>   3
Atom  44H    basis set group =>   3
Atom  45H    basis set group =>   3
Atom  46H    basis set group =>   3
Atom  47H    basis set group =>   3
Atom  48H    basis set group =>   3
Atom  49H    basis set group =>   3
Atom  50H    basis set group =>   3
Atom  51H    basis set group =>   3
Atom  52H    basis set group =>   3
Atom  53H    basis set group =>   3
Atom  54H    basis set group =>   3
Atom  55H    basis set group =>   3
Atom  56H    basis set group =>   3
Atom  57H    basis set group =>   3
Atom  58H    basis set group =>   3
Atom  59H    basis set group =>   3
Atom  60H    basis set group =>   3
Atom  61H    basis set group =>   3
Atom  62H    basis set group =>   3
Atom  63H    basis set group =>   3


           ************************************************************
           *        Program running with 72 parallel MPI-processes    *
           *              working on a shared directory               *
           ************************************************************
------------------------------------------------------------------------------
                           ORCA GTO INTEGRAL CALCULATION
                           -- RI-GTO INTEGRALS CHOSEN --
------------------------------------------------------------------------------

                         BASIS SET STATISTICS AND STARTUP INFO

Gaussian basis set:
 # of primitive gaussian shells          ...  700
 # of primitive gaussian functions       ... 1164
 # of contracted shells                  ...  432
 # of contracted basis functions         ...  728
 Highest angular momentum                ...    2
 Maximum contraction depth               ...    5
Auxiliary gaussian basis set:
 # of primitive gaussian shells          ... 2024
 # of primitive gaussian functions       ... 5008
 # of contracted shells                  ... 2024
 # of contracted aux-basis functions     ... 5008
 Highest angular momentum                ...    3
 Maximum contraction depth               ...    1
Ratio of auxiliary to basis functions    ...  6.88
Integral package used                  ... LIBINT
 One Electron integrals                  ... done
 Ordering auxiliary basis shells         ... done
 Integral threshhold             Thresh  ...  1.000e-10
 Primitive cut-off               TCut    ...  1.000e-11
 Pre-screening matrix                    ... done
 Shell pair data                         ... 
 Ordering of the shell pairs             ... done (   0.016 sec) 66488 of 93528 pairs
 Determination of significant pairs      ... done (   0.001 sec)
 Creation of shell pair data             ... done (   0.013 sec)
 Storage of shell pair data              ... done (   0.028 sec)
 Shell pair data done in (   0.058 sec)
 Computing two index integrals           ... done
 Cholesky decomposition of the V-matrix  ... done


Timings:
 Total evaluation time                   ...   4.415 sec (  0.074 min)
 One electron matrix time                ...   0.653 sec (  0.011 min) = 14.8%
 Schwartz matrix evaluation time         ...   0.413 sec (  0.007 min) =  9.4%
 Two index repulsion integral time       ...   0.997 sec (  0.017 min) = 22.6%
 Cholesky decomposition of V             ...   2.261 sec (  0.038 min) = 51.2%
 Three index repulsion integral time     ...   0.002 sec (  0.000 min) =  0.0%



           ************************************************************
           *        Program running with 72 parallel MPI-processes    *
           *              working on a shared directory               *
           ************************************************************
-------------------------------------------------------------------------------
                                 ORCA SCF
-------------------------------------------------------------------------------

------------
SCF SETTINGS
------------
Hamiltonian:
 Density Functional     Method          .... DFT(GTOs)
 Exchange Functional    Exchange        .... PBE
   PBE kappa parameter   XKappa         ....  0.804000
   PBE mue parameter    XMuePBE         ....  0.219520
 Correlation Functional Correlation     .... PBE
   PBE beta parameter  CBetaPBE         ....  0.066725
 LDA part of GGA corr.  LDAOpt          .... PW91-LDA
 Gradients option       PostSCFGGA      .... off
   Density functional embedding theory  .... OFF
   NL short-range parameter             ....  6.400000
 RI-approximation to the Coulomb term is turned on
   Number of auxiliary basis functions  .... 5008
   RIJ-COSX (HFX calculated with COS-X)).... on


General Settings:
 Integral files         IntName         .... zfs
 Hartree-Fock type      HFTyp           .... UHF
 Total Charge           Charge          ....   -1
 Multiplicity           Mult            ....    3
 Number of Electrons    NEL             ....  206
 Basis Dimension        Dim             ....  728
 Nuclear Repulsion      ENuc            ....   3308.0184381261 Eh

Convergence Acceleration:
 DIIS                   CNVDIIS         .... on
   Start iteration      DIISMaxIt       ....    12
   Startup error        DIISStart       ....  0.200000
   # of expansion vecs  DIISMaxEq       ....     5
   Bias factor          DIISBfac        ....   1.050
   Max. coefficient     DIISMaxC        ....  10.000
 Newton-Raphson         CNVNR           .... off
 SOSCF                  CNVSOSCF        .... off
 Level Shifting         CNVShift        .... on
   Level shift para.    LevelShift      ....    0.2500
   Turn off err/grad.   ShiftErr        ....    0.0010
 Zerner damping         CNVZerner       .... off
 Static damping         CNVDamp         .... on
   Fraction old density DampFac         ....    0.7000
   Max. Damping (<1)    DampMax         ....    0.9800
   Min. Damping (>=0)   DampMin         ....    0.0000
   Turn off err/grad.   DampErr         ....    0.1000
 Fernandez-Rico         CNVRico         .... off

SCF Procedure:
 Maximum # iterations   MaxIter         ....   125
 SCF integral mode      SCFMode         .... Direct
   Integral package                     .... LIBINT
 Reset frequency        DirectResetFreq ....    20
 Integral Threshold     Thresh          ....  1.000e-10 Eh
 Primitive CutOff       TCut            ....  1.000e-11 Eh

Convergence Tolerance:
 Convergence Check Mode ConvCheckMode   .... Total+1el-Energy
 Convergence forced     ConvForced      .... 0
 Energy Change          TolE            ....  1.000e-06 Eh
 1-El. energy change                    ....  1.000e-03 Eh
 DIIS Error             TolErr          ....  1.000e-06


Diagonalization of the overlap matrix:
Smallest eigenvalue                        ... 1.744e-04
Time for diagonalization                   ...    0.167 sec
Threshold for overlap eigenvalues          ... 1.000e-08
Number of eigenvalues below threshold      ... 0
Time for construction of square roots      ...    0.271 sec
Total time needed                          ...    0.441 sec

-------------------
DFT GRID GENERATION
-------------------

General Integration Accuracy     IntAcc      ...  4.340
Radial Grid Type                 RadialGrid  ... Gauss-Chebyshev
Angular Grid (max. acc.)         AngularGrid ... Lebedev-110
Angular grid pruning method      GridPruning ... 3 (G Style)
Weight generation scheme         WeightScheme... Becke
Basis function cutoff            BFCut       ...    1.0000e-10
Integration weight cutoff        WCut        ...    1.0000e-14
Grids for H and He will be reduced by one unit

# of grid points (after initial pruning)     ...  74998 (   0.0 sec)
# of grid points (after weights+screening)   ...  62524 (   0.1 sec)
nearest neighbour list constructed           ...    0.0 sec
Grid point re-assignment to atoms done       ...    0.0 sec
Grid point division into batches done        ...    0.1 sec
Reduced shell lists constructed in    0.1 sec

Total number of grid points                  ...    62524
Total number of batches                      ...     1008
Average number of points per batch           ...       62
Average number of grid points per atom       ...      977
Average number of shells per batch           ...   226.60 (52.45%)
Average number of basis functions per batch  ...   453.27 (62.26%)
Average number of large shells per batch     ...   168.73 (74.46%)
Average number of large basis fcns per batch ...   335.40 (74.00%)
Maximum spatial batch extension              ...   2.82,  2.26,  2.31 au
Average spatial batch extension              ...   0.03,  0.03,  0.02 au

Time for grid setup =    0.431 sec

------------------------------
INITIAL GUESS: MODEL POTENTIAL
------------------------------
Loading Hartree-Fock densities                     ... done
Calculating cut-offs                               ... done
Setting up the integral package                    ... done
Initializing the effective Hamiltonian             ... done
Starting the Coulomb interaction                   ... done (   0.2 sec)
Reading the grid                                   ... done
Mapping shells                                     ... done
Starting the XC term evaluation                    ... done (   0.1 sec)
  promolecular density results
     # of electrons  =    204.967113941
     EX              =   -156.125198935
     EC              =     -7.166538327
     EX+EC           =   -163.291737263
Transforming the Hamiltonian                       ... done (   0.1 sec)
Diagonalizing the Hamiltonian                      ... done (   0.1 sec)
Back transforming the eigenvectors                 ... done (   0.1 sec)
Now organizing SCF variables                       ... done
                      ------------------
                      INITIAL GUESS DONE (   1.2 sec)
                      ------------------
--------------------
COSX GRID GENERATION
--------------------

General Integration Accuracy     IntAcc      ...  3.340
Radial Grid Type                 RadialGrid  ... Gauss-Chebyshev
Angular Grid (max. acc.)         AngularGrid ... Lebedev-50
Angular grid pruning method      GridPruning ... 3 (G Style)
Weight generation scheme         WeightScheme... Becke
Basis function cutoff            BFCut       ...    1.0000e-10
Integration weight cutoff        WCut        ...    1.0000e-14
Grids for H and He will be reduced by one unit

# of grid points (after initial pruning)     ...  27746 (   0.0 sec)
# of grid points (after weights+screening)   ...  23416 (   0.0 sec)
nearest neighbour list constructed           ...    0.0 sec
Grid point re-assignment to atoms done       ...    0.0 sec
Grid point division into batches done        ...    0.0 sec
Reduced shell lists constructed in    0.0 sec

Total number of grid points                  ...    23416
Total number of batches                      ...      395
Average number of points per batch           ...       59
Average number of grid points per atom       ...      366
Average number of shells per batch           ...   221.57 (51.29%)
Average number of basis functions per batch  ...   442.14 (60.73%)
Average number of large shells per batch     ...   163.86 (73.95%)
Average number of large basis fcns per batch ...   327.29 (74.02%)
Maximum spatial batch extension              ...   3.25,  3.37,  2.80 au
Average spatial batch extension              ...   0.04,  0.04,  0.03 au

Overlap Fitting                  UseSFitting ... on
Constructing numerical overlap ... done (      0.0 sec)
Inverting numerical overlap    ... done (      0.0 sec)
Obtaining analytic overlap     ... done (      0.0 sec)
Final contraction and storage  ... done (      0.1 sec)


General Integration Accuracy     IntAcc      ...  3.670
Radial Grid Type                 RadialGrid  ... Gauss-Chebyshev
Angular Grid (max. acc.)         AngularGrid ... Lebedev-50
Angular grid pruning method      GridPruning ... 3 (G Style)
Weight generation scheme         WeightScheme... Becke
Basis function cutoff            BFCut       ...    1.0000e-10
Integration weight cutoff        WCut        ...    1.0000e-14
Grids for H and He will be reduced by one unit

# of grid points (after initial pruning)     ...  35464 (   0.0 sec)
# of grid points (after weights+screening)   ...  29854 (   0.0 sec)
nearest neighbour list constructed           ...    0.0 sec
Grid point re-assignment to atoms done       ...    0.0 sec
Grid point division into batches done        ...    0.0 sec
Reduced shell lists constructed in    0.0 sec

Total number of grid points                  ...    29854
Total number of batches                      ...      500
Average number of points per batch           ...       59
Average number of grid points per atom       ...      466
Average number of shells per batch           ...   222.50 (51.50%)
Average number of basis functions per batch  ...   444.50 (61.06%)
Average number of large shells per batch     ...   166.62 (74.89%)
Average number of large basis fcns per batch ...   333.88 (75.11%)
Maximum spatial batch extension              ...   2.74,  2.85,  3.05 au
Average spatial batch extension              ...   0.03,  0.03,  0.03 au

Overlap Fitting                  UseSFitting ... on
Constructing numerical overlap ... done (      0.1 sec)
Inverting numerical overlap    ... done (      0.0 sec)
Obtaining analytic overlap     ... done (      0.0 sec)
Final contraction and storage  ... done (      0.1 sec)


General Integration Accuracy     IntAcc      ...  4.010
Radial Grid Type                 RadialGrid  ... Gauss-Chebyshev
Angular Grid (max. acc.)         AngularGrid ... Lebedev-110
Angular grid pruning method      GridPruning ... 3 (G Style)
Weight generation scheme         WeightScheme... Becke
Basis function cutoff            BFCut       ...    1.0000e-10
Integration weight cutoff        WCut        ...    1.0000e-14
Grids for H and He will be reduced by one unit

# of grid points (after initial pruning)     ...  65152 (   0.0 sec)
# of grid points (after weights+screening)   ...  54578 (   0.1 sec)
nearest neighbour list constructed           ...    0.0 sec
Grid point re-assignment to atoms done       ...    0.0 sec
Grid point division into batches done        ...    0.0 sec
Reduced shell lists constructed in    0.1 sec

Total number of grid points                  ...    54578
Total number of batches                      ...      883
Average number of points per batch           ...       61
Average number of grid points per atom       ...      853
Average number of shells per batch           ...   226.29 (52.38%)
Average number of basis functions per batch  ...   453.86 (62.34%)
Average number of large shells per batch     ...   168.36 (74.40%)
Average number of large basis fcns per batch ...   334.79 (73.76%)
Maximum spatial batch extension              ...   2.49,  2.23,  2.22 au
Average spatial batch extension              ...   0.03,  0.03,  0.03 au

Overlap Fitting                  UseSFitting ... on
Constructing numerical overlap ... done (      0.1 sec)
Inverting numerical overlap    ... done (      0.0 sec)
Obtaining analytic overlap     ... done (      0.0 sec)
Final contraction and storage  ... done (      0.1 sec)

Time for X-Grid setup             =    1.237 sec
--------------
SCF ITERATIONS
--------------
ITER       Energy         Delta-E        Max-DP      RMS-DP      [F,P]     Damp
               ***  Starting incremental Fock matrix formation  ***
  0  -1102.3547018960   0.000000000000 7.85562032  0.02041657  0.1512448 0.7000
  1  -1102.7798622104  -0.425160314378 4.99683210  0.01274603  0.0656809 0.7000
                               ***Turning on DIIS***
  2  -1102.8699438334  -0.090081622984 0.84540003  0.00360989  0.0352223 0.0000
  3  -1103.1233368937  -0.253393060342 4.54915488  0.01132992  0.0323474 0.0000
  4  -1103.1565412929  -0.033204399157 1.46924846  0.00364950  0.0198666 0.0000
  5  -1103.1658958902  -0.009354597317 0.65842207  0.00160636  0.0057998 0.0000
  6  -1103.1672361708  -0.001340280650 0.44624074  0.00108254  0.0014074 0.0000
  7  -1103.1674430779  -0.000206907059 0.26939342  0.00064121  0.0023499 0.0000
  8  -1103.1675478801  -0.000104802208 0.56526266  0.00132363  0.0005464 0.0000
  9  -1103.1676146492  -0.000066769079 0.10197324  0.00028981  0.0007945 0.0000
 10  -1103.1676212277  -0.000006578487 0.09210048  0.00022674  0.0005323 0.0000
 11  -1103.1676259132  -0.000004685586 0.02742972  0.00006635  0.0003695 0.0000
 12  -1103.1676278550  -0.000001941803 0.00772060  0.00001895  0.0000666 0.0000
 13  -1103.1676278034   0.000000051687 0.00693175  0.00001194  0.0000967 0.0000
                 **** Energy Check signals convergence ****

               *****************************************************
               *                     SUCCESS                       *
               *           SCF CONVERGED AFTER  14 CYCLES          *
               *****************************************************

Setting up the final grid:

General Integration Accuracy     IntAcc      ...  4.670
Radial Grid Type                 RadialGrid  ... Gauss-Chebyshev
Angular Grid (max. acc.)         AngularGrid ... Lebedev-302
Angular grid pruning method      GridPruning ... 3 (G Style)
Weight generation scheme         WeightScheme... Becke
Basis function cutoff            BFCut       ...    1.0000e-10
Integration weight cutoff        WCut        ...    1.0000e-14
Grids for H and He will be reduced by one unit

# of grid points (after initial pruning)     ... 296120 (   0.0 sec)
# of grid points (after weights+screening)   ... 239165 (   0.2 sec)
nearest neighbour list constructed           ...    0.0 sec
Grid point re-assignment to atoms done       ...    0.1 sec
Grid point division into batches done        ...    0.8 sec
Reduced shell lists constructed in    0.9 sec

Total number of grid points                  ...   239165
Total number of batches                      ...     3769
Average number of points per batch           ...       63
Average number of grid points per atom       ...     3737
Average number of shells per batch           ...   226.54 (52.44%)
Average number of basis functions per batch  ...   455.94 (62.63%)
Average number of large shells per batch     ...   167.63 (74.00%)
Average number of large basis fcns per batch ...   331.59 (72.73%)
Maximum spatial batch extension              ...   2.05,  1.65,  1.81 au
Average spatial batch extension              ...   0.02,  0.02,  0.02 au

Final grid set up in    1.3 sec
Final integration                            ... done (   0.9 sec)
Change in XC energy                          ...    -0.000250405
Integrated number of electrons               ...   205.999800748
Previous integrated no of electrons          ...   205.996561272

----------------
TOTAL SCF ENERGY
----------------

Total Energy       :        -1103.16787835 Eh          -30018.72409 eV

Components:
Nuclear Repulsion  :         3308.01843813 Eh           90015.75801 eV
Electronic Energy  :        -4411.18631647 Eh         -120034.48211 eV
One Electron Energy:        -8103.21937959 Eh         -220499.80931 eV
Two Electron Energy:         3692.03306312 Eh          100465.32721 eV

Virial components:
Potential Energy   :        -2203.46105528 Eh          -59959.22358 eV
Kinetic Energy     :         1100.29317693 Eh           29940.49949 eV
Virial Ratio       :            2.00261267


DFT components:
N(Alpha)           :      103.999908884638 electrons
N(Beta)            :      101.999891863661 electrons
N(Total)           :      205.999800748299 electrons
E(X)               :     -159.757656564007 Eh       
E(C)               :       -7.076887643847 Eh       
E(XC)              :     -166.834544207854 Eh       
DFET-embed. en.    :        0.000000000000 Eh       

---------------
SCF CONVERGENCE
---------------

  Last Energy change         ...   -1.3995e-07  Tolerance :   1.0000e-06
  Last MAX-Density change    ...    4.3757e-04  Tolerance :   1.0000e-05
  Last RMS-Density change    ...    1.5940e-06  Tolerance :   1.0000e-06
  Last DIIS Error            ...    3.2721e-05  Tolerance :   1.0000e-06

             **** THE GBW FILE WAS UPDATED (zfs.gbw) ****
             **** DENSITY FILE WAS UPDATED (zfs.scfp) ****
             **** ENERGY FILE WAS UPDATED (zfs.en.tmp) ****
----------------------
UHF SPIN CONTAMINATION
----------------------

Warning: in a DFT calculation there is little theoretical justification to 
         calculate <S**2> as in Hartree-Fock theory. We will do it anyways
         but you should keep in mind that the values have only limited relevance

Expectation value of <S**2>     :     2.011123
Ideal value S*(S+1) for S=1.0   :     2.000000
Deviation                       :     0.011123

             **** THE GBW FILE WAS UPDATED (zfs.gbw) ****
             **** DENSITY FILE WAS UPDATED (zfs.scfp) ****
----------------
ORBITAL ENERGIES
----------------
                 SPIN UP ORBITALS
  NO   OCC          E(Eh)            E(eV) 
   0   1.0000     -13.855688      -377.0324 
   1   1.0000      -9.801437      -266.7107 
   2   1.0000      -9.801176      -266.7036 
   3   1.0000      -9.801103      -266.7016 
   4   1.0000      -9.762859      -265.6609 
   5   1.0000      -9.762776      -265.6586 
   6   1.0000      -9.762773      -265.6586 
   7   1.0000      -9.762681      -265.6561 
   8   1.0000      -9.762611      -265.6542 
   9   1.0000      -9.762594      -265.6537 
  10   1.0000      -9.755783      -265.4684 
  11   1.0000      -9.755629      -265.4642 
  12   1.0000      -9.755347      -265.4565 
  13   1.0000      -9.749282      -265.2914 
  14   1.0000      -9.748927      -265.2818 
  15   1.0000      -9.748680      -265.2751 
  16   1.0000      -9.748431      -265.2683 
  17   1.0000      -9.748412      -265.2678 
  18   1.0000      -9.748244      -265.2632 
  19   1.0000      -9.739741      -265.0318 
  20   1.0000      -9.739551      -265.0266 
  21   1.0000      -9.739529      -265.0261 
  22   1.0000      -9.735799      -264.9246 
  23   1.0000      -9.735410      -264.9140 
  24   1.0000      -9.735249      -264.9096 
  25   1.0000      -9.734566      -264.8910 
  26   1.0000      -9.734562      -264.8909 
  27   1.0000      -9.734097      -264.8782 
  28   1.0000      -0.729672       -19.8554 
  29   1.0000      -0.667454       -18.1623 
  30   1.0000      -0.652348       -17.7513 
  31   1.0000      -0.652272       -17.7492 
  32   1.0000      -0.609352       -16.5813 
  33   1.0000      -0.598259       -16.2794 
  34   1.0000      -0.597959       -16.2713 
  35   1.0000      -0.582474       -15.8499 
  36   1.0000      -0.582365       -15.8470 
  37   1.0000      -0.545779       -14.8514 
  38   1.0000      -0.521604       -14.1936 
  39   1.0000      -0.521534       -14.1917 
  40   1.0000      -0.518972       -14.1219 
  41   1.0000      -0.515969       -14.0402 
  42   1.0000      -0.515693       -14.0327 
  43   1.0000      -0.501954       -13.6589 
  44   1.0000      -0.444698       -12.1009 
  45   1.0000      -0.444600       -12.0982 
  46   1.0000      -0.423879       -11.5343 
  47   1.0000      -0.405271       -11.0280 
  48   1.0000      -0.405260       -11.0277 
  49   1.0000      -0.400285       -10.8923 
  50   1.0000      -0.397524       -10.8172 
  51   1.0000      -0.384051       -10.4506 
  52   1.0000      -0.383956       -10.4480 
  53   1.0000      -0.358449        -9.7539 
  54   1.0000      -0.357973        -9.7410 
  55   1.0000      -0.357876        -9.7383 
  56   1.0000      -0.346453        -9.4275 
  57   1.0000      -0.312898        -8.5144 
  58   1.0000      -0.308968        -8.4074 
  59   1.0000      -0.308894        -8.4054 
  60   1.0000      -0.301314        -8.1992 
  61   1.0000      -0.301209        -8.1963 
  62   1.0000      -0.282084        -7.6759 
  63   1.0000      -0.279295        -7.6000 
  64   1.0000      -0.279190        -7.5971 
  65   1.0000      -0.275652        -7.5009 
  66   1.0000      -0.275598        -7.4994 
  67   1.0000      -0.242663        -6.6032 
  68   1.0000      -0.242609        -6.6017 
  69   1.0000      -0.238245        -6.4830 
  70   1.0000      -0.231066        -6.2876 
  71   1.0000      -0.228441        -6.2162 
  72   1.0000      -0.226306        -6.1581 
  73   1.0000      -0.226225        -6.1559 
  74   1.0000      -0.212509        -5.7827 
  75   1.0000      -0.212374        -5.7790 
  76   1.0000      -0.210132        -5.7180 
  77   1.0000      -0.197023        -5.3613 
  78   1.0000      -0.190618        -5.1870 
  79   1.0000      -0.190598        -5.1864 
  80   1.0000      -0.179314        -4.8794 
  81   1.0000      -0.179283        -4.8785 
  82   1.0000      -0.171418        -4.6645 
  83   1.0000      -0.166783        -4.5384 
  84   1.0000      -0.166743        -4.5373 
  85   1.0000      -0.161144        -4.3849 
  86   1.0000      -0.158662        -4.3174 
  87   1.0000      -0.156269        -4.2523 
  88   1.0000      -0.156168        -4.2496 
  89   1.0000      -0.146981        -3.9996 
  90   1.0000      -0.146855        -3.9961 
  91   1.0000      -0.135106        -3.6764 
  92   1.0000      -0.119927        -3.2634 
  93   1.0000      -0.119863        -3.2616 
  94   1.0000      -0.095602        -2.6015 
  95   1.0000      -0.095547        -2.6000 
  96   1.0000      -0.092615        -2.5202 
  97   1.0000      -0.077045        -2.0965 
  98   1.0000      -0.059079        -1.6076 
  99   1.0000      -0.056821        -1.5462 
 100   1.0000      -0.056567        -1.5393 
 101   1.0000       0.002056         0.0560 
 102   1.0000       0.047295         1.2870 
 103   1.0000       0.047604         1.2954 
 104   0.0000       0.096937         2.6378 
 105   0.0000       0.113803         3.0967 
 106   0.0000       0.116323         3.1653 
 107   0.0000       0.117259         3.1908 
 108   0.0000       0.124598         3.3905 
 109   0.0000       0.124986         3.4010 
 110   0.0000       0.126576         3.4443 
 111   0.0000       0.130651         3.5552 
 112   0.0000       0.131327         3.5736 
 113   0.0000       0.141224         3.8429 
 114   0.0000       0.142270         3.8714 
 115   0.0000       0.143949         3.9171 
 116   0.0000       0.150426         4.0933 
 117   0.0000       0.151150         4.1130 
 118   0.0000       0.153273         4.1708 
 119   0.0000       0.155416         4.2291 
 120   0.0000       0.179127         4.8743 
 121   0.0000       0.180197         4.9034 
 122   0.0000       0.184178         5.0117 
 123   0.0000       0.184743         5.0271 
 124   0.0000       0.185001         5.0341 
 125   0.0000       0.185490         5.0474 
 126   0.0000       0.193415         5.2631 
 127   0.0000       0.194133         5.2826 
 128   0.0000       0.195974         5.3327 
 129   0.0000       0.228148         6.2082 
 130   0.0000       0.228458         6.2167 
 131   0.0000       0.230112         6.2617 
 132   0.0000       0.239659         6.5215 
 133   0.0000       0.246522         6.7082 
 134   0.0000       0.249947         6.8014 
 135   0.0000       0.250130         6.8064 
 136   0.0000       0.251966         6.8563 
 137   0.0000       0.252432         6.8690 
 138   0.0000       0.275234         7.4895 
 139   0.0000       0.276975         7.5369 
 140   0.0000       0.277398         7.5484 
 141   0.0000       0.283492         7.7142 
 142   0.0000       0.284237         7.7345 
 143   0.0000       0.292213         7.9515 
 144   0.0000       0.292788         7.9672 
 145   0.0000       0.293045         7.9742 
 146   0.0000       0.296537         8.0692 
 147   0.0000       0.297386         8.0923 
 148   0.0000       0.297734         8.1018 
 149   0.0000       0.299417         8.1475 
 150   0.0000       0.308314         8.3896 
 151   0.0000       0.308608         8.3976 
 152   0.0000       0.311084         8.4650 
 153   0.0000       0.311867         8.4863 
 154   0.0000       0.314055         8.5459 
 155   0.0000       0.327524         8.9124 
 156   0.0000       0.331881         9.0309 
 157   0.0000       0.332280         9.0418 
 158   0.0000       0.340901         9.2764 
 159   0.0000       0.343734         9.3535 
 160   0.0000       0.344052         9.3621 
 161   0.0000       0.354944         9.6585 
 162   0.0000       0.355573         9.6756 
 163   0.0000       0.356958         9.7133 
 164   0.0000       0.366307         9.9677 
 165   0.0000       0.372307        10.1310 
 166   0.0000       0.373267        10.1571 
 167   0.0000       0.374049        10.1784 
 168   0.0000       0.382025        10.3954 
 169   0.0000       0.382196        10.4001 
 170   0.0000       0.382727        10.4145 
 171   0.0000       0.388918        10.5830 
 172   0.0000       0.389656        10.6031 
 173   0.0000       0.390068        10.6143 
 174   0.0000       0.392910        10.6916 
 175   0.0000       0.393394        10.7048 
 176   0.0000       0.394511        10.7352 
 177   0.0000       0.397484        10.8161 
 178   0.0000       0.398034        10.8311 
 179   0.0000       0.410778        11.1778 
 180   0.0000       0.411689        11.2026 
 181   0.0000       0.413607        11.2548 
 182   0.0000       0.427353        11.6289 
 183   0.0000       0.428146        11.6505 
 184   0.0000       0.428482        11.6596 
 185   0.0000       0.428924        11.6716 
 186   0.0000       0.429198        11.6791 
 187   0.0000       0.431716        11.7476 
 188   0.0000       0.432831        11.7779 
 189   0.0000       0.433747        11.8029 
 190   0.0000       0.436839        11.8870 
 191   0.0000       0.437990        11.9183 
 192   0.0000       0.438556        11.9337 
 193   0.0000       0.451108        12.2753 
 194   0.0000       0.460598        12.5335 
 195   0.0000       0.461242        12.5510 
 196   0.0000       0.467317        12.7163 
 197   0.0000       0.470847        12.8124 
 198   0.0000       0.471923        12.8417 
 199   0.0000       0.472789        12.8652 
 200   0.0000       0.482424        13.1274 
 201   0.0000       0.483186        13.1482 
 202   0.0000       0.498652        13.5690 
 203   0.0000       0.507908        13.8209 
 204   0.0000       0.509433        13.8624 
 205   0.0000       0.510982        13.9045 
 206   0.0000       0.515510        14.0277 
 207   0.0000       0.516836        14.0638 
 208   0.0000       0.527395        14.3512 
 209   0.0000       0.534715        14.5503 
 210   0.0000       0.535993        14.5851 
 211   0.0000       0.537445        14.6246 
 212   0.0000       0.541769        14.7423 
 213   0.0000       0.546782        14.8787 
 214   0.0000       0.548167        14.9164 
 215   0.0000       0.551214        14.9993 
 216   0.0000       0.558313        15.1925 
 217   0.0000       0.558701        15.2030 
 218   0.0000       0.559401        15.2221 
 219   0.0000       0.575505        15.6603 
 220   0.0000       0.579299        15.7635 
 221   0.0000       0.580901        15.8071 
 222   0.0000       0.590191        16.0599 
 223   0.0000       0.591234        16.0883 
 224   0.0000       0.600210        16.3325 
 225   0.0000       0.603028        16.4092 
 226   0.0000       0.604589        16.4517 
 227   0.0000       0.608015        16.5449 
 228   0.0000       0.616143        16.7661 
 229   0.0000       0.618169        16.8212 
 230   0.0000       0.619312        16.8523 
 231   0.0000       0.620208        16.8767 
 232   0.0000       0.621584        16.9142 
 233   0.0000       0.623313        16.9612 
 234   0.0000       0.624386        16.9904 
 235   0.0000       0.625190        17.0123 
 236   0.0000       0.634154        17.2562 
 237   0.0000       0.644594        17.5403 
 238   0.0000       0.645036        17.5523 
 239   0.0000       0.646857        17.6019 
 240   0.0000       0.657816        17.9001 
 241   0.0000       0.658146        17.9091 
 242   0.0000       0.664330        18.0773 
 243   0.0000       0.679098        18.4792 
 244   0.0000       0.697333        18.9754 
 245   0.0000       0.698920        19.0186 
 246   0.0000       0.702560        19.1176 
 247   0.0000       0.703609        19.1462 
 248   0.0000       0.708594        19.2818 
 249   0.0000       0.713948        19.4275 
 250   0.0000       0.714074        19.4309 
 251   0.0000       0.714640        19.4464 
 252   0.0000       0.730223        19.8704 
 253   0.0000       0.736000        20.0276 
 254   0.0000       0.737429        20.0665 
 255   0.0000       0.737900        20.0793 
 256   0.0000       0.744409        20.2564 
 257   0.0000       0.746568        20.3151 
 258   0.0000       0.758268        20.6335 
 259   0.0000       0.758676        20.6446 
 260   0.0000       0.761122        20.7112 
 261   0.0000       0.761316        20.7165 
 262   0.0000       0.762135        20.7388 
 263   0.0000       0.779494        21.2111 
 264   0.0000       0.812126        22.0991 
 265   0.0000       0.828552        22.5460 
 266   0.0000       0.852893        23.2084 
 267   0.0000       0.852909        23.2088 
 268   0.0000       0.856975        23.3195 
 269   0.0000       0.857512        23.3341 
 270   0.0000       0.896197        24.3868 
 271   0.0000       0.898596        24.4520 
 272   0.0000       0.906483        24.6666 
 273   0.0000       0.907747        24.7011 
 274   0.0000       0.916215        24.9315 
 275   0.0000       0.923192        25.1213 
 276   0.0000       0.924491        25.1567 
 277   0.0000       0.942484        25.6463 
 278   0.0000       0.950865        25.8743 
 279   0.0000       0.951873        25.9018 
 280   0.0000       0.956267        26.0214 
 281   0.0000       0.957387        26.0518 
 282   0.0000       0.959126        26.0991 
 283   0.0000       0.961824        26.1726 
 284   0.0000       0.964281        26.2394 
 285   0.0000       0.965696        26.2779 
 286   0.0000       0.984508        26.7898 
 287   0.0000       1.007712        27.4212 
 288   0.0000       1.010573        27.4991 
 289   0.0000       1.011642        27.5282 
 290   0.0000       1.016021        27.6473 
 291   0.0000       1.017250        27.6808 
 292   0.0000       1.018113        27.7043 
 293   0.0000       1.030111        28.0307 
 294   0.0000       1.030400        28.0386 
 295   0.0000       1.039635        28.2899 
 296   0.0000       1.040549        28.3148 
 297   0.0000       1.041608        28.3436 
 298   0.0000       1.046327        28.4720 
 299   0.0000       1.046846        28.4861 
 300   0.0000       1.054633        28.6980 
 301   0.0000       1.060180        28.8490 
 302   0.0000       1.060734        28.8640 
 303   0.0000       1.061360        28.8811 
 304   0.0000       1.067026        29.0352 
 305   0.0000       1.067332        29.0436 
 306   0.0000       1.070738        29.1363 
 307   0.0000       1.088466        29.6187 
 308   0.0000       1.095022        29.7971 
 309   0.0000       1.096740        29.8438 
 310   0.0000       1.125175        30.6176 
 311   0.0000       1.131355        30.7857 
 312   0.0000       1.131405        30.7871 
 313   0.0000       1.132475        30.8162 
 314   0.0000       1.135468        30.8977 
 315   0.0000       1.135885        30.9090 
 316   0.0000       1.140141        31.0248 
 317   0.0000       1.141202        31.0537 
 318   0.0000       1.141995        31.0753 
 319   0.0000       1.146418        31.1956 
 320   0.0000       1.147510        31.2253 
 321   0.0000       1.148749        31.2591 
 322   0.0000       1.148921        31.2637 
 323   0.0000       1.153436        31.3866 
 324   0.0000       1.153892        31.3990 
 325   0.0000       1.154671        31.4202 
 326   0.0000       1.155285        31.4369 
 327   0.0000       1.160709        31.5845 
 328   0.0000       1.161252        31.5993 
 329   0.0000       1.170415        31.8486 
 330   0.0000       1.204099        32.7652 
 331   0.0000       1.205148        32.7937 
 332   0.0000       1.205425        32.8013 
 333   0.0000       1.206388        32.8275 
 334   0.0000       1.208934        32.8968 
 335   0.0000       1.209349        32.9081 
 336   0.0000       1.214343        33.0440 
 337   0.0000       1.214892        33.0589 
 338   0.0000       1.215422        33.0733 
 339   0.0000       1.216482        33.1022 
 340   0.0000       1.233345        33.5610 
 341   0.0000       1.233827        33.5741 
 342   0.0000       1.249672        34.0053 
 343   0.0000       1.270573        34.5741 
 344   0.0000       1.279462        34.8159 
 345   0.0000       1.279903        34.8279 
 346   0.0000       1.282358        34.8947 
 347   0.0000       1.290468        35.1154 
 348   0.0000       1.293936        35.2098 
 349   0.0000       1.295233        35.2451 
 350   0.0000       1.306886        35.5622 
 351   0.0000       1.308575        35.6081 
 352   0.0000       1.313635        35.7458 
 353   0.0000       1.327764        36.1303 
 354   0.0000       1.330378        36.2014 
 355   0.0000       1.331404        36.2293 
 356   0.0000       1.368409        37.2363 
 357   0.0000       1.368628        37.2423 
 358   0.0000       1.381943        37.6046 
 359   0.0000       1.384761        37.6813 
 360   0.0000       1.385493        37.7012 
 361   0.0000       1.402882        38.1744 
 362   0.0000       1.403946        38.2033 
 363   0.0000       1.405024        38.2326 
 364   0.0000       1.412009        38.4227 
 365   0.0000       1.428846        38.8809 
 366   0.0000       1.429613        38.9017 
 367   0.0000       1.438112        39.1330 
 368   0.0000       1.440547        39.1993 
 369   0.0000       1.440902        39.2090 
 370   0.0000       1.455013        39.5929 
 371   0.0000       1.455782        39.6138 
 372   0.0000       1.464247        39.8442 
 373   0.0000       1.485151        40.4130 
 374   0.0000       1.487097        40.4660 
 375   0.0000       1.487461        40.4759 
 376   0.0000       1.496608        40.7248 
 377   0.0000       1.497529        40.7498 
 378   0.0000       1.498314        40.7712 
 379   0.0000       1.505779        40.9743 
 380   0.0000       1.507016        41.0080 
 381   0.0000       1.508084        41.0371 
 382   0.0000       1.511627        41.1335 
 383   0.0000       1.518159        41.3112 
 384   0.0000       1.518971        41.3333 
 385   0.0000       1.530738        41.6535 
 386   0.0000       1.533029        41.7158 
 387   0.0000       1.533162        41.7195 
 388   0.0000       1.539639        41.8957 
 389   0.0000       1.540359        41.9153 
 390   0.0000       1.540957        41.9316 
 391   0.0000       1.553846        42.2823 
 392   0.0000       1.565017        42.5863 
 393   0.0000       1.565593        42.6019 
 394   0.0000       1.566271        42.6204 
 395   0.0000       1.571391        42.7597 
 396   0.0000       1.572042        42.7774 
 397   0.0000       1.583346        43.0850 
 398   0.0000       1.598519        43.4979 
 399   0.0000       1.598943        43.5094 
 400   0.0000       1.611854        43.8608 
 401   0.0000       1.615499        43.9600 
 402   0.0000       1.616375        43.9838 
 403   0.0000       1.621122        44.1130 
 404   0.0000       1.641892        44.6782 
 405   0.0000       1.645403        44.7737 
 406   0.0000       1.650859        44.9221 
 407   0.0000       1.651687        44.9447 
 408   0.0000       1.662431        45.2370 
 409   0.0000       1.662744        45.2456 
 410   0.0000       1.668383        45.3990 
 411   0.0000       1.668725        45.4083 
 412   0.0000       1.686108        45.8813 
 413   0.0000       1.686617        45.8952 
 414   0.0000       1.687992        45.9326 
 415   0.0000       1.688114        45.9359 
 416   0.0000       1.688295        45.9408 
 417   0.0000       1.708033        46.4779 
 418   0.0000       1.731616        47.1197 
 419   0.0000       1.731748        47.1233 
 420   0.0000       1.736054        47.2404 
 421   0.0000       1.744441        47.4686 
 422   0.0000       1.745146        47.4878 
 423   0.0000       1.749960        47.6188 
 424   0.0000       1.752368        47.6844 
 425   0.0000       1.753268        47.7088 
 426   0.0000       1.763298        47.9818 
 427   0.0000       1.763538        47.9883 
 428   0.0000       1.781187        48.4686 
 429   0.0000       1.801146        49.0117 
 430   0.0000       1.801823        49.0301 
 431   0.0000       1.806892        49.1680 
 432   0.0000       1.807026        49.1717 
 433   0.0000       1.812179        49.3119 
 434   0.0000       1.812783        49.3283 
 435   0.0000       1.819377        49.5078 
 436   0.0000       1.819709        49.5168 
 437   0.0000       1.825350        49.6703 
 438   0.0000       1.832442        49.8633 
 439   0.0000       1.832666        49.8694 
 440   0.0000       1.835626        49.9499 
 441   0.0000       1.840428        50.0806 
 442   0.0000       1.841151        50.1003 
 443   0.0000       1.851168        50.3728 
 444   0.0000       1.855759        50.4978 
 445   0.0000       1.856013        50.5047 
 446   0.0000       1.857440        50.5435 
 447   0.0000       1.858338        50.5680 
 448   0.0000       1.858646        50.5763 
 449   0.0000       1.870138        50.8890 
 450   0.0000       1.905669        51.8559 
 451   0.0000       1.906007        51.8651 
 452   0.0000       1.907213        51.8979 
 453   0.0000       1.926073        52.4111 
 454   0.0000       1.930744        52.5382 
 455   0.0000       1.933156        52.6039 
 456   0.0000       1.939590        52.7789 
 457   0.0000       1.939959        52.7890 
 458   0.0000       1.943942        52.8974 
 459   0.0000       1.944297        52.9070 
 460   0.0000       1.950811        53.0843 
 461   0.0000       1.951140        53.0932 
 462   0.0000       1.967207        53.5304 
 463   0.0000       1.969387        53.5897 
 464   0.0000       1.971215        53.6395 
 465   0.0000       1.971447        53.6458 
 466   0.0000       1.993226        54.2384 
 467   0.0000       1.997326        54.3500 
 468   0.0000       1.997487        54.3544 
 469   0.0000       2.007180        54.6182 
 470   0.0000       2.007415        54.6245 
 471   0.0000       2.015363        54.8408 
 472   0.0000       2.017165        54.8898 
 473   0.0000       2.017449        54.8976 
 474   0.0000       2.024081        55.0781 
 475   0.0000       2.032811        55.3156 
 476   0.0000       2.033110        55.3237 
 477   0.0000       2.039749        55.5044 
 478   0.0000       2.040056        55.5127 
 479   0.0000       2.043421        55.6043 
 480   0.0000       2.052781        55.8590 
 481   0.0000       2.053172        55.8696 
 482   0.0000       2.069186        56.3054 
 483   0.0000       2.081897        56.6513 
 484   0.0000       2.084769        56.7295 
 485   0.0000       2.086874        56.7867 
 486   0.0000       2.087250        56.7970 
 487   0.0000       2.105618        57.2968 
 488   0.0000       2.106057        57.3087 
 489   0.0000       2.110545        57.4309 
 490   0.0000       2.118610        57.6503 
 491   0.0000       2.118918        57.6587 
 492   0.0000       2.124659        57.8149 
 493   0.0000       2.126210        57.8571 
 494   0.0000       2.126326        57.8603 
 495   0.0000       2.151207        58.5373 
 496   0.0000       2.162944        58.8567 
 497   0.0000       2.179078        59.2957 
 498   0.0000       2.179540        59.3083 
 499   0.0000       2.193406        59.6856 
 500   0.0000       2.209572        60.1255 
 501   0.0000       2.213485        60.2320 
 502   0.0000       2.213758        60.2394 
 503   0.0000       2.224101        60.5209 
 504   0.0000       2.224925        60.5433 
 505   0.0000       2.225009        60.5456 
 506   0.0000       2.229326        60.6631 
 507   0.0000       2.229817        60.6764 
 508   0.0000       2.250412        61.2368 
 509   0.0000       2.250764        61.2464 
 510   0.0000       2.274499        61.8923 
 511   0.0000       2.275039        61.9070 
 512   0.0000       2.290794        62.3357 
 513   0.0000       2.296236        62.4837 
 514   0.0000       2.307741        62.7968 
 515   0.0000       2.308005        62.8040 
 516   0.0000       2.314258        62.9742 
 517   0.0000       2.326491        63.3070 
 518   0.0000       2.348012        63.8927 
 519   0.0000       2.348090        63.8948 
 520   0.0000       2.358955        64.1904 
 521   0.0000       2.359364        64.2015 
 522   0.0000       2.359846        64.2147 
 523   0.0000       2.395287        65.1791 
 524   0.0000       2.395764        65.1921 
 525   0.0000       2.417869        65.7936 
 526   0.0000       2.423900        65.9577 
 527   0.0000       2.423972        65.9596 
 528   0.0000       2.426495        66.0283 
 529   0.0000       2.435720        66.2793 
 530   0.0000       2.435830        66.2823 
 531   0.0000       2.446323        66.5678 
 532   0.0000       2.456661        66.8491 
 533   0.0000       2.457073        66.8603 
 534   0.0000       2.468154        67.1619 
 535   0.0000       2.468474        67.1706 
 536   0.0000       2.474121        67.3243 
 537   0.0000       2.479504        67.4707 
 538   0.0000       2.511503        68.3415 
 539   0.0000       2.511761        68.3485 
 540   0.0000       2.522445        68.6392 
 541   0.0000       2.550407        69.4001 
 542   0.0000       2.564877        69.7939 
 543   0.0000       2.565205        69.8028 
 544   0.0000       2.584227        70.3204 
 545   0.0000       2.588227        70.4292 
 546   0.0000       2.600035        70.7506 
 547   0.0000       2.600315        70.7582 
 548   0.0000       2.616945        71.2107 
 549   0.0000       2.617145        71.2161 
 550   0.0000       2.633003        71.6477 
 551   0.0000       2.633248        71.6543 
 552   0.0000       2.633434        71.6594 
 553   0.0000       2.671555        72.6967 
 554   0.0000       2.682783        73.0022 
 555   0.0000       2.694627        73.3245 
 556   0.0000       2.695100        73.3374 
 557   0.0000       2.739694        74.5509 
 558   0.0000       2.745309        74.7037 
 559   0.0000       2.747873        74.7734 
[...]
 522( 0) :     2.359848 a.u.    64.215 eV
 523( 0) :     2.395286 a.u.    65.179 eV
 524( 0) :     2.395768 a.u.    65.192 eV
 525( 0) :     2.417871 a.u.    65.794 eV
 526( 0) :     2.423903 a.u.    65.958 eV
 527( 0) :     2.423974 a.u.    65.960 eV
 528( 0) :     2.426500 a.u.    66.028 eV
 529( 0) :     2.435721 a.u.    66.279 eV
 530( 0) :     2.435832 a.u.    66.282 eV
 531( 0) :     2.446324 a.u.    66.568 eV
 532( 0) :     2.456664 a.u.    66.849 eV
 533( 0) :     2.457076 a.u.    66.860 eV
 534( 0) :     2.468157 a.u.    67.162 eV
 535( 0) :     2.468477 a.u.    67.171 eV
 536( 0) :     2.474125 a.u.    67.324 eV
 537( 0) :     2.479503 a.u.    67.471 eV
 538( 0) :     2.511504 a.u.    68.342 eV
 539( 0) :     2.511763 a.u.    68.349 eV
 540( 0) :     2.522444 a.u.    68.639 eV
 541( 0) :     2.550410 a.u.    69.400 eV
 542( 0) :     2.564877 a.u.    69.794 eV
 543( 0) :     2.565203 a.u.    69.803 eV
 544( 0) :     2.584232 a.u.    70.321 eV
 545( 0) :     2.588220 a.u.    70.429 eV
 546( 0) :     2.600036 a.u.    70.751 eV
 547( 0) :     2.600314 a.u.    70.758 eV
 548( 0) :     2.616945 a.u.    71.211 eV
 549( 0) :     2.617143 a.u.    71.216 eV
 550( 0) :     2.633003 a.u.    71.648 eV
 551( 0) :     2.633247 a.u.    71.654 eV
 552( 0) :     2.633435 a.u.    71.659 eV
 553( 0) :     2.671555 a.u.    72.697 eV
 554( 0) :     2.682784 a.u.    73.002 eV
 555( 0) :     2.694627 a.u.    73.325 eV
 556( 0) :     2.695099 a.u.    73.337 eV
 557( 0) :     2.739698 a.u.    74.551 eV
 558( 0) :     2.745311 a.u.    74.704 eV
 559( 0) :     2.747876 a.u.    74.774 eV
 560( 0) :     2.747984 a.u.    74.776 eV
 561( 0) :     2.757921 a.u.    75.047 eV
 562( 0) :     2.758057 a.u.    75.051 eV
 563( 0) :     2.768165 a.u.    75.326 eV
 564( 0) :     2.768616 a.u.    75.338 eV
 565( 0) :     2.777314 a.u.    75.575 eV
 566( 0) :     2.785162 a.u.    75.788 eV
 567( 0) :     2.785674 a.u.    75.802 eV
 568( 0) :     2.791232 a.u.    75.953 eV
 569( 0) :     2.795866 a.u.    76.079 eV
 570( 0) :     2.796477 a.u.    76.096 eV
 571( 0) :     2.798611 a.u.    76.154 eV
 572( 0) :     2.818597 a.u.    76.698 eV
 573( 0) :     2.819817 a.u.    76.731 eV
 574( 0) :     2.856823 a.u.    77.738 eV
 575( 0) :     2.859602 a.u.    77.814 eV
 576( 0) :     2.860297 a.u.    77.833 eV
 577( 0) :     2.875725 a.u.    78.252 eV
 578( 0) :     2.875883 a.u.    78.257 eV
 579( 0) :     2.910444 a.u.    79.197 eV
 580( 0) :     2.911426 a.u.    79.224 eV
 581( 0) :     2.922731 a.u.    79.532 eV
 582( 0) :     2.922953 a.u.    79.538 eV
 583( 0) :     2.925319 a.u.    79.602 eV
 584( 0) :     2.934249 a.u.    79.845 eV
 585( 0) :     2.962958 a.u.    80.626 eV
 586( 0) :     2.964064 a.u.    80.656 eV
 587( 0) :     2.975431 a.u.    80.966 eV
 588( 0) :     2.986446 a.u.    81.265 eV
 589( 0) :     2.986841 a.u.    81.276 eV
 590( 0) :     3.062897 a.u.    83.346 eV
 591( 0) :     3.063695 a.u.    83.367 eV
 592( 0) :     3.067249 a.u.    83.464 eV
 593( 0) :     3.140834 a.u.    85.466 eV
 594( 0) :     3.800322 a.u.   103.412 eV
 595( 0) :     3.805195 a.u.   103.545 eV
 596( 0) :     3.835661 a.u.   104.374 eV
 597( 0) :     3.850251 a.u.   104.771 eV
 598( 0) :     3.886308 a.u.   105.752 eV
 599( 0) :     3.886635 a.u.   105.761 eV
 600( 0) :     5.167448 a.u.   140.613 eV
 601( 0) :     5.167657 a.u.   140.619 eV
 602( 0) :     5.176460 a.u.   140.859 eV
 603( 0) :     5.181936 a.u.   141.008 eV
 604( 0) :     5.182404 a.u.   141.020 eV
 605( 0) :     5.184972 a.u.   141.090 eV
 606( 0) :     5.280467 a.u.   143.689 eV
 607( 0) :     5.280597 a.u.   143.692 eV
 608( 0) :     5.285634 a.u.   143.829 eV
 609( 0) :     5.287552 a.u.   143.882 eV
 610( 0) :     5.287623 a.u.   143.884 eV
 611( 0) :     5.289731 a.u.   143.941 eV
 612( 0) :     5.298226 a.u.   144.172 eV
 613( 0) :     5.298511 a.u.   144.180 eV
 614( 0) :     5.301061 a.u.   144.249 eV
 615( 0) :     5.318893 a.u.   144.734 eV
 616( 0) :     5.319298 a.u.   144.745 eV
 617( 0) :     5.338340 a.u.   145.264 eV
 618( 0) :     5.371381 a.u.   146.163 eV
 619( 0) :     5.372005 a.u.   146.180 eV
 620( 0) :     5.383382 a.u.   146.489 eV
 621( 0) :     5.398995 a.u.   146.914 eV
 622( 0) :     5.399724 a.u.   146.934 eV
 623( 0) :     5.402959 a.u.   147.022 eV
 624( 0) :     5.416940 a.u.   147.402 eV
 625( 0) :     5.455582 a.u.   148.454 eV
 626( 0) :     5.456170 a.u.   148.470 eV
 627( 0) :     5.456421 a.u.   148.477 eV
 628( 0) :     5.486375 a.u.   149.292 eV
 629( 0) :     5.487364 a.u.   149.319 eV
 630( 0) :     5.487621 a.u.   149.326 eV
 631( 0) :     5.506908 a.u.   149.851 eV
 632( 0) :     5.520225 a.u.   150.213 eV
 633( 0) :     5.521250 a.u.   150.241 eV
 634( 0) :     5.546099 a.u.   150.917 eV
 635( 0) :     5.546179 a.u.   150.919 eV
 636( 0) :     5.557379 a.u.   151.224 eV
 637( 0) :     5.585066 a.u.   151.977 eV
 638( 0) :     5.587512 a.u.   152.044 eV
 639( 0) :     5.588279 a.u.   152.065 eV
 640( 0) :     5.646715 a.u.   153.655 eV
 641( 0) :     5.647966 a.u.   153.689 eV
 642( 0) :     5.669372 a.u.   154.271 eV
 643( 0) :     5.729766 a.u.   155.915 eV
 644( 0) :     5.730346 a.u.   155.931 eV
 645( 0) :     5.745769 a.u.   156.350 eV
 646( 0) :     5.753248 a.u.   156.554 eV
 647( 0) :     5.758703 a.u.   156.702 eV
 648( 0) :     5.759020 a.u.   156.711 eV
 649( 0) :     5.839242 a.u.   158.894 eV
 650( 0) :     5.839374 a.u.   158.897 eV
 651( 0) :     5.894745 a.u.   160.404 eV
 652( 0) :     5.990118 a.u.   162.999 eV
 653( 0) :     5.990397 a.u.   163.007 eV
 654( 0) :     6.074681 a.u.   165.300 eV
 655( 0) :     6.075242 a.u.   165.316 eV
 656( 0) :     6.085457 a.u.   165.594 eV
 657( 0) :     6.096955 a.u.   165.907 eV
 658( 0) :     6.106832 a.u.   166.175 eV
 659( 0) :     6.107323 a.u.   166.189 eV
 660( 0) :     6.114797 a.u.   166.392 eV
 661( 0) :     6.115431 a.u.   166.409 eV
 662( 0) :     6.122012 a.u.   166.588 eV
 663( 0) :     7.460410 a.u.   203.008 eV
 664( 0) :    29.649942 a.u.   806.816 eV
 665( 0) :    29.717718 a.u.   808.660 eV
 666( 0) :    29.717886 a.u.   808.665 eV
 667( 0) :    29.782799 a.u.   810.431 eV
 668( 0) :    29.793240 a.u.   810.715 eV
 669( 0) :    29.793413 a.u.   810.720 eV
 670( 0) :    29.832358 a.u.   811.780 eV
 671( 0) :    30.010014 a.u.   816.614 eV
 672( 0) :    30.010338 a.u.   816.623 eV
 673( 0) :    30.019184 a.u.   816.864 eV
 674( 0) :    30.035454 a.u.   817.306 eV
 675( 0) :    30.041155 a.u.   817.461 eV
 676( 0) :    30.041406 a.u.   817.468 eV
 677( 0) :    30.108564 a.u.   819.296 eV
 678( 0) :    30.108613 a.u.   819.297 eV
 679( 0) :    30.148956 a.u.   820.395 eV
 680( 0) :    30.240245 a.u.   822.879 eV
 681( 0) :    30.240287 a.u.   822.880 eV
 682( 0) :    30.295796 a.u.   824.391 eV
 683( 0) :    30.295957 a.u.   824.395 eV
 684( 0) :    30.319231 a.u.   825.028 eV
 685( 0) :    30.321309 a.u.   825.085 eV
 686( 0) :    30.329265 a.u.   825.301 eV
 687( 0) :    30.329462 a.u.   825.307 eV
 688( 0) :    30.333854 a.u.   825.426 eV
 689( 0) :    30.338770 a.u.   825.560 eV
 690( 0) :    30.338984 a.u.   825.566 eV
 691( 0) :    36.673725 a.u.   997.943 eV
 692( 0) :    36.681753 a.u.   998.161 eV
 693( 0) :    36.682058 a.u.   998.170 eV
 694( 0) :    36.763988 a.u.  1000.399 eV
 695( 0) :    36.766136 a.u.  1000.457 eV
 696( 0) :    36.774668 a.u.  1000.690 eV
 697( 0) :    36.863039 a.u.  1003.094 eV
 698( 0) :    36.878834 a.u.  1003.524 eV
 699( 0) :    36.878973 a.u.  1003.528 eV
 700( 0) :    36.893351 a.u.  1003.919 eV
 701( 0) :    36.893383 a.u.  1003.920 eV
 702( 0) :    36.893520 a.u.  1003.924 eV
 703( 0) :    36.894538 a.u.  1003.951 eV
 704( 0) :    36.905619 a.u.  1004.253 eV
 705( 0) :    36.905826 a.u.  1004.259 eV
 706( 0) :    36.909053 a.u.  1004.346 eV
 707( 0) :    36.909192 a.u.  1004.350 eV
 708( 0) :    36.939145 a.u.  1005.165 eV
 709( 0) :    36.962155 a.u.  1005.791 eV
 710( 0) :    36.962241 a.u.  1005.794 eV
 711( 0) :    36.978861 a.u.  1006.246 eV
 712( 0) :    36.987471 a.u.  1006.480 eV
 713( 0) :    37.012410 a.u.  1007.159 eV
 714( 0) :    37.012897 a.u.  1007.172 eV
 715( 0) :    37.015765 a.u.  1007.250 eV
 716( 0) :    37.026638 a.u.  1007.546 eV
 717( 0) :    37.032400 a.u.  1007.703 eV
 718( 0) :    37.105361 a.u.  1009.688 eV
 719( 0) :    37.105786 a.u.  1009.700 eV
 720( 0) :    37.111718 a.u.  1009.861 eV
 721( 0) :    37.246043 a.u.  1013.516 eV
 722( 0) :    37.253784 a.u.  1013.727 eV
 723( 0) :    37.269529 a.u.  1014.155 eV
 724( 0) :    37.358594 a.u.  1016.579 eV
 725( 0) :    37.371031 a.u.  1016.917 eV
 726( 0) :    37.371675 a.u.  1016.935 eV
 727( 0) :    41.163234 a.u.  1120.109 eV
-------
TIMINGS
-------

Total SCF time: 0 days 0 hours 1 min 11 sec 

Total time                  ....      71.800 sec
Sum of individual times     ....      68.296 sec  ( 95.1%)

Fock matrix formation       ....      45.355 sec  ( 63.2%)
  Split-RI-J                ....      25.068 sec  ( 55.3% of F)
  XC integration            ....      13.250 sec  ( 29.2% of F)
    Basis function eval.    ....       0.346 sec  (  2.6% of XC)
    Density eval.           ....       0.907 sec  (  6.8% of XC)
    XC-Functional eval.     ....       0.074 sec  (  0.6% of XC)
    XC-Potential eval.      ....       1.291 sec  (  9.7% of XC)
Diagonalization             ....       8.264 sec  ( 11.5%)
Density matrix formation    ....       0.634 sec  (  0.9%)
Population analysis         ....       4.350 sec  (  6.1%)
Initial guess               ....       0.805 sec  (  1.1%)
Orbital Transformation      ....       0.000 sec  (  0.0%)
Orbital Orthonormalization  ....       0.000 sec  (  0.0%)
DIIS solution               ....       5.938 sec  (  8.3%)
Grid generation             ....       2.951 sec  (  4.1%)

-------------------------   --------------------
FINAL SINGLE POINT ENERGY     -1103.167878348374
-------------------------   --------------------

   --->>> SOC part of D-tensor requested, so NeedSOC=true

                            ***************************************
                            *     ORCA property calculations      *
                            ***************************************

                                    ---------------------
                                    Active property flags
                                    ---------------------
   (+) Dipole Moment
   (+) D-tensor
   (+) Spin-Orbit Integrals are needed


------------------------------------------------------------------------------
                       ORCA ELECTRIC PROPERTIES CALCULATION
------------------------------------------------------------------------------

Dipole Moment Calculation                       ... on
Quadrupole Moment Calculation                   ... off
Polarizability Calculation                      ... off
GBWName                                         ... zfs.gbw
Electron density file                           ... zfs.scfp
The origin for moment calculation is the CENTER OF MASS  = (-0.000011,  0.000054 -3.167486)

-------------
DIPOLE MOMENT
-------------
                                X             Y             Z
Electronic contribution:     -0.00348       0.01121       1.06682
Nuclear contribution   :      0.00038      -0.00379      -0.32886
                        -----------------------------------------
Total Dipole Moment    :     -0.00310       0.00742       0.73796
                        -----------------------------------------
Magnitude (a.u.)       :      0.73800
Magnitude (Debye)      :      1.87586



--------------------
Rotational spectrum 
--------------------
 
Rotational constants in cm-1:     0.009246     0.009141     0.009141 
Rotational constants in MHz :   277.183097   274.048600   274.045280 

 Dipole components along the rotational axes: 
x,y,z [a.u.] :     0.737953     0.008412     0.001815 
x,y,z [Debye]:     1.875729     0.021381     0.004614 

 


           ************************************************************
           *        Program running with 72 parallel MPI-processes    *
           *              working on a shared directory               *
           ************************************************************
------------------------------------------------------------------------------
                         ORCA SPIN-ORBIT COUPLING CALCULATION
------------------------------------------------------------------------------

GBW file                                    ... zfs.gbw
Input density                               ... zfs.scfp
Output integrals                            ... zfs
Operator type                               ... Mean-field/Effective potential
   One-Electron Terms                       ... 1
   Coulomb Contribution                     ... 2
   Exchange Contribution                    ... 3
   Correlation Contribution                 ... 0
   Maximum number of centers                ... 4
Setting up the integration grid             ... done
Evaluating density on the grid              ... (NumEl=  205.996561) done
Evaluating Coulomb term semi-analytically   ... done
One-Center Exchange (+SOO)                  ... done
Evaluating the spin-orbit operator          ... done
Total time for SOC: 64.459


           ************************************************************
           *        Program running with 72 parallel MPI-processes    *
           *              working on a shared directory               *
           ************************************************************
------------------------------------------------------------------------------
                                ORCA EPR/NMR CALCULATION
------------------------------------------------------------------------------

GBWName                      ... zfs.gbw
Electron density file        ... zfs.scfp
Spin density file            ... zfs.scfr
Spin-orbit integrals         ... zfs
Multiplicity                 ... 3
g-tensor                     ... 0
NMR chemical shifts          ... 0
D-tensor                     ... spin-spin and spin-orbit
D(SS)-algorithm              ... spin-density from UNOs
D(SOC)-algorithm             ... CP (=Coupled-perturbed)
Active orbitals for UNO spin density= 102 .. 103

Starting the spin-spin zero-field-splitting computation (UNO)...
                        ... done with spin-spin calculation

Starting the spin-orbit zero-field-splitting computation (CP)...
Transforming integrals                       ... Max(Pert)=   5.6128e-06
Warning: Perturbation too small - adjusting
Transforming integrals                       ... Max(Pert)=   6.1124e-05
Warning: Perturbation too small - adjusting
Transforming integrals                       ... Max(Pert)=   6.6564e-04
Warning: Perturbation too small - adjusting
Transforming integrals                       ... Max(Pert)=   7.2488e-03
done
    ... no HF exchange - skipping linear equations
ZFS-Tensor - using the prefactors
   -1/(4S**2) for same spin
    1/(2*S*(2*S-1)) for alpha->beta
    1/((S+1)*(2*S+1)) for beta->alpha
                        ... done with spin-orbit calculation

---------------------------
ZERO-FIELD-SPLITTING TENSOR
---------------------------

raw-matrix : 
   0.019894     0.000243     0.000014  
   0.000243     0.019972    -0.000005  
   0.000014    -0.000005     0.087162  

Tensor is right-handed
diagonalized D matrix : 
   0.019687     0.020179     0.087162  

  -0.761261     0.648446    -0.000210  
   0.648446     0.761261     0.000078  
   0.000211    -0.000077    -1.000000  


Direction X=1 Y=0 Z=2
D   =     0.067229  cm**-1
E/D =     0.003664

SPIN-SPIN-PART
                   0          1          2    
      0      -0.021936   0.000241  -0.000003
      1       0.000241  -0.021870  -0.000008
      2      -0.000003  -0.000008   0.043806
Exchange and Coulomb parts of SS (raw)
Coulomb
                   0          1          2    
      0      -0.020908  -0.000547  -0.000026
      1      -0.000547  -0.011307   0.000041
      2      -0.000026   0.000041   0.032215
Exchange
                   0          1          2    
      0      -0.001028   0.000787   0.000023
      1       0.000787  -0.010563  -0.000049
      2       0.000023  -0.000049   0.011591
One-, two-, three- and four-center SS contributions (raw)
One-Center            (AA|AA):
                   0          1          2    
      0      -0.001611  -0.000115   0.000050
      1      -0.000115  -0.001430   0.000072
      2       0.000050   0.000072   0.003041
Two-Center-Coulomb    (AA|BB):
                   0          1          2    
      0      -0.315595  -0.041981   0.001375
      1      -0.041981  -0.383161  -0.002535
      2       0.001375  -0.002535   0.698756
Two-Center-Exchange   (AB|BA):
                   0          1          2    
      0      -0.014302   0.000973  -0.000568
      1       0.000973  -0.014927   0.000164
      2      -0.000568   0.000164   0.029229
Two-Center-hybrid     (AA|AB):
                   0          1          2    
      0       0.001035   0.000517  -0.000166
      1       0.000517   0.001894  -0.000732
      2      -0.000166  -0.000732  -0.002929
Three-Center-Coulomb  (AA|BC):
                   0          1          2    
      0       0.537732   0.073891  -0.006377
      1       0.073891   0.661181   0.002630
      2      -0.006377   0.002630  -1.198913
Three-Center-Exchange (AB|AC):
                   0          1          2    
      0      -0.004190   0.000181   0.002020
      1       0.000181  -0.004094   0.001115
      2       0.002020   0.001115   0.008284
Four-Center           (AB|CD):
                   0          1          2    
      0      -0.225005  -0.033226   0.003663
      1      -0.033226  -0.281333  -0.000721
      2       0.003663  -0.000721   0.506338
ALPHA-PART
                   0          1          2    
      0      -0.113507   0.000006  -0.000006
      1       0.000006  -0.113515   0.000001
      2      -0.000006   0.000001  -0.108844
BETA-PART
                   0          1          2    
      0      -0.111417   0.000012  -0.000006
      1       0.000012  -0.111418   0.000011
      2      -0.000006   0.000011  -0.104874
ALPHA->BETA-PART
                   0          1          2    
      0       0.230140  -0.000011   0.000029
      1      -0.000011   0.230162  -0.000006
      2       0.000029  -0.000006   0.222858
BETA->ALPHA-PART
                   0          1          2    
      0       0.036614  -0.000004   0.000000
      1      -0.000004   0.036613  -0.000003
      2       0.000000  -0.000003   0.034217

Individual contributions (in cm**-1)
                                   D         E
SPIN-SPIN                  :   0.06571    0.00024
  Exchange vs Coulomb
  Coulomb                  :   0.04832    0.00022
  Exchange                 :   0.01739    0.00002
  One through four center contributions:
  1-center                 :   0.00456   -0.00010
  2-center-Coulomb         :   1.04814   -0.04682
  2-center-Exchange        :   0.04384    0.00091
  2-center-Hybrid          :  -0.00439    0.00058
  3-center-Coulomb         :  -1.79837    0.08277
  3-center-Exchange        :   0.01243    0.00019
  4-center                 :   0.75951   -0.03728
SPIN-ORBIT                 :   0.00152    0.00000
SOMO->VMO  (alpha->alpha)  :   0.00467    0.00001
DOMO->SOMO (beta ->beta )  :   0.00654    0.00001
SOMO->SOMO (alpha->beta )  :  -0.00729   -0.00001
DOMO->VMO  (beta ->alpha)  :  -0.00240   -0.00000


Timings for individual modules:

Sum of individual times         ...      268.721 sec (=   4.479 min)
GTO integral calculation        ...       14.239 sec (=   0.237 min)   5.3 %
Spin-Orbit-Coupling Matrices    ...       64.446 sec (=   1.074 min)  24.0 %
SCF iterations                  ...       81.691 sec (=   1.362 min)  30.4 %
EPR/NMR calculation             ...      108.345 sec (=   1.806 min)  40.3 %
                             ****ORCA TERMINATED NORMALLY****
TOTAL RUN TIME: 0 days 0 hours 4 minutes 47 seconds 417 msec
