
                                 *****************
                                 * O   R   C   A *
                                 *****************

           --- An Ab Initio, DFT and Semiempirical electronic structure package ---

                  #######################################################
                  #                        -***-                        #
                  #          Department of theory and spectroscopy      #
                  #               Directorship: Frank Neese             #
                  #        Max Planck Institute fuer Kohlenforschung    #
                  #                Kaiser Wilhelm Platz 1               #
                  #                 D-45470 Muelheim/Ruhr               #
                  #                      Germany                        #
                  #                                                     #
                  #                  All rights reserved                #
                  #                        -***-                        #
                  #######################################################


                         Program Version 4.2.1 -  RELEASE  -


 With contributions from (in alphabetic order):
   Daniel Aravena         : Magnetic Suceptibility
   Michael Atanasov       : Ab Initio Ligand Field Theory (pilot matlab implementation)
   Alexander A. Auer      : GIAO ZORA, VPT2
   Ute Becker             : Parallelization
   Giovanni Bistoni       : ED, misc. LED, open-shell LED, HFLD
   Martin Brehm           : Molecular dynamics
   Dmytro Bykov           : SCF Hessian
   Vijay G. Chilkuri      : MRCI spin determinant printing, contributions to CSF-ICE
   Dipayan Datta          : RHF DLPNO-CCSD density
   Achintya Kumar Dutta   : EOM-CC, STEOM-CC
   Dmitry Ganyushin       : Spin-Orbit,Spin-Spin,Magnetic field MRCI
   Miquel Garcia          : C-PCM Hessian, Gaussian charge scheme
   Yang Guo               : DLPNO-NEVPT2, CIM, IAO-localization
   Andreas Hansen         : Spin unrestricted coupled pair/coupled cluster methods
   Benjamin Helmich-Paris : CASSCF linear response (MC-RPA)
   Lee Huntington         : MR-EOM, pCC
   Robert Izsak           : Overlap fitted RIJCOSX, COSX-SCS-MP3, EOM
   Christian Kollmar      : KDIIS, OOCD, Brueckner-CCSD(T), CCSD density
   Simone Kossmann        : Meta GGA functionals, TD-DFT gradient, OOMP2, MP2 Hessian
   Martin Krupicka        : AUTO-CI
   Lucas Lang             : DCDCAS
   Dagmar Lenk            : GEPOL surface, SMD
   Dimitrios Liakos       : Extrapolation schemes; Compound Job, initial MDCI parallelization
   Dimitrios Manganas     : Further ROCIS development; embedding schemes
   Dimitrios Pantazis     : SARC Basis sets
   Taras Petrenko         : DFT Hessian,TD-DFT gradient, ASA, ECA, R-Raman, ABS, FL, XAS/XES, NRVS
   Peter Pinski           : DLPNO-MP2, DLPNO-MP2 Gradient
   Christoph Reimann      : Effective Core Potentials
   Marius Retegan         : Local ZFS, SOC
   Christoph Riplinger    : Optimizer, TS searches, QM/MM, DLPNO-CCSD(T), (RO)-DLPNO pert. Triples
   Tobias Risthaus        : Range-separated hybrids, TD-DFT gradient, RPA, STAB
   Michael Roemelt        : Original ROCIS implementation
   Masaaki Saitow         : Open-shell DLPNO-CCSD energy and density
   Barbara Sandhoefer     : DKH picture change effects
   Avijit Sen             : IP-ROCIS
   Kantharuban Sivalingam : CASSCF convergence, NEVPT2, FIC-MRCI
   Bernardo de Souza      : ESD, SOC TD-DFT
   Georgi Stoychev        : AutoAux, RI-MP2 NMR
   Willem Van den Heuvel  : Paramagnetic NMR
   Boris Wezisla          : Elementary symmetry handling
   Frank Wennmohs         : Technical directorship


 We gratefully acknowledge several colleagues who have allowed us to
 interface, adapt or use parts of their codes:
   Stefan Grimme, W. Hujo, H. Kruse,             : VdW corrections, initial TS optimization,
                  C. Bannwarth                     DFT functionals, gCP, sTDA/sTD-DF
   Ed Valeev, F. Pavosevic, A. Kumar             : LibInt (2-el integral package), F12 methods
   Garnet Chan, S. Sharma, J. Yang, R. Olivares  : DMRG
   Ulf Ekstrom                                   : XCFun DFT Library
   Mihaly Kallay                                 : mrcc  (arbitrary order and MRCC methods)
   Andreas Klamt, Michael Diedenhofen            : otool_cosmo (COSMO solvation model)
   Jiri Pittner, Ondrej Demel                    : Mk-CCSD
   Frank Weinhold                                : gennbo (NPA and NBO analysis)
   Christopher J. Cramer and Donald G. Truhlar   : smd solvation model
   Lars Goerigk                                  : TD-DFT with DH, B97 family of functionals
   V. Asgeirsson, H. Jonsson                     : NEB implementation
   FAccTs GmbH                                   : IRC, NEB, NEB-TS, Multilevel, MM, QM/MM, CI optimization
   S Lehtola, MJT Oliveira, MAL Marques          : LibXC Library


 Your calculation uses the libint2 library for the computation of 2-el integrals
 For citations please refer to: http://libint.valeyev.net

 Your ORCA version has been built with support for libXC version: 4.2.3
 For citations please refer to: https://tddft.org/programs/libxc/

 This ORCA versions uses:
   CBLAS   interface :  Fast vector & matrix operations
   LAPACKE interface :  Fast linear algebra routines
   SCALAPACK package :  Parallel linear algebra routines




***************************************
The coordinates will be read from file: nv.xyz
***************************************


----- Orbital basis set information -----
Your calculation utilizes the basis: EPR-II
   V. Barone, in Recent Advances in Density Functional Methods, Part 1 (ed. D. P. Chong), World Scientific, Singapore, 1995, p. 287.

----- AuxJ basis set information -----
Your calculation utilizes the AutoAux generation procedure.
  G. L. Stoychev, A. A. Auer, F. Neese, J. Chem. Theory Comput. 13, 554 (2017)

----- AuxC basis set information -----
Your calculation utilizes the AutoAux generation procedure.
  G. L. Stoychev, A. A. Auer, F. Neese, J. Chem. Theory Comput. 13, 554 (2017)

----- AuxJK basis set information -----
Your calculation utilizes the AutoAux generation procedure.
  G. L. Stoychev, A. A. Auer, F. Neese, J. Chem. Theory Comput. 13, 554 (2017)

================================================================================
                                        WARNINGS
                       Please study these warnings very carefully!
================================================================================


WARNING: your system is open-shell and RHF/RKS was chosen
  ===> : WILL SWITCH to UHF/UKS


INFO   : the flag for use of LIBINT has been found!

================================================================================
                                       INPUT FILE
================================================================================
NAME = zfs.in
|  1> # Use EPR-II is a special basis set for epr, autoaux creates a large auxiliary basis
|  2> !PBE EPR-II AUTOAUX RIJCOSX
|  3> 
|  4> # use original (unoptimized) cluster xyz
|  5> *xyzfile -1 3 nv.xyz
|  6> 
|  7> # Parallelization
|  8> %PAL NPROCS 72 END
|  9> 
| 10> # ZFS calculation
| 11> %EPRNMR DTENSOR SSANDSO
| 12>     DSS     UNO
| 13>     DSOC    CP
| 14> END
| 15> 
| 16>                          ****END OF INPUT****
================================================================================

                       ****************************
                       * Single Point Calculation *
                       ****************************

---------------------------------
CARTESIAN COORDINATES (ANGSTROEM)
---------------------------------
  C      0.896763   -1.251483   -2.249811
  C     -0.600694   -1.325909   -4.258023
  C      2.889480    0.284481   -2.199697
  C     -1.691096    2.360028   -2.199804
  C     -1.198284   -2.644637   -2.199700
  C      2.029048    1.462850   -0.144983
  C     -2.037495   -1.451062   -0.144986
  C     -0.237905    2.490050   -0.145035
  C      0.252349   -2.488634   -0.144933
  C      2.275406   -1.038997   -0.144931
  C     -2.281390    1.025775   -0.145037
  C     -0.586853   -1.295118    0.395617
  C     -0.828195    1.155795    0.395566
  C      1.415030    0.139346    0.395618
  C      0.602303    1.329041   -3.737621
  C      0.849980   -1.186190   -3.737569
  C     -1.452114   -0.143068   -3.737623
  C      2.028810    1.461765   -1.693673
  C     -2.036388   -1.451184   -1.693676
  C     -0.238503    2.489128   -1.693726
  C      0.251588   -2.487910   -1.693623
  C      2.274968   -1.038042   -1.693621
  C     -2.280322    1.026047   -1.693727
  C      0.635448    1.402266   -2.249865
  C     -1.532109   -0.150914   -2.249867
  C      1.448643    0.142559   -4.258021
  C     -0.847757    1.183102   -4.258075
  N      0.000000    0.000000    0.000000
  H     -1.018003   -2.246860   -3.907906
  H     -0.597719   -1.319399   -5.328003
  H      2.906966    0.286181   -3.269544
  H      3.889890    0.382999   -1.833101
  H     -2.275211    3.175194   -1.826663
  H     -1.705390    2.379978   -3.269519
  H     -1.205513   -2.660648   -3.269548
  H     -1.613184   -3.560271   -1.833106
  H      1.449885    2.290603    0.207581
  H      3.037402    1.546568    0.203028
  H     -2.448454   -2.373847    0.207839
  H     -2.628858   -0.629932    0.202756
  H     -0.831595    3.307349    0.207753
  H      0.768883    2.591626    0.202744
  H      1.258772   -2.400935    0.207668
  H     -0.179340   -3.403747    0.203076
  H      3.280039   -0.933491    0.207895
  H      1.859966   -1.961682    0.202848
  H     -2.708666    0.110344    0.207562
  H     -2.858072    1.857190    0.202936
  H     -0.592025   -1.306476    1.465539
  H     -0.835488    1.165970    1.465488
  H      1.427446    0.140591    1.465541
  H      1.017065    2.244370   -4.105093
  H      1.435311   -2.003055   -4.105005
  H     -2.452192   -0.241553   -4.105096
  H      2.453425    2.380934   -2.039696
  H     -3.043270   -1.557764   -2.039701
  H      0.172650    3.414397   -2.039749
  H      0.835319   -3.315227   -2.039611
  H      2.870712   -1.856751   -2.039609
  H     -3.288652    0.934175   -2.039752
  H      1.441752    0.141858   -5.328007
  H      2.454798    0.241643   -3.907684
  H     -1.436684    2.004984   -3.907994
  H     -0.843566    1.177254   -5.328055

----------------------------
CARTESIAN COORDINATES (A.U.)
----------------------------
  NO LB      ZA    FRAG     MASS         X           Y           Z
   0 C     6.0000    0    12.011    1.694637   -2.364959   -4.251526
   1 C     6.0000    0    12.011   -1.135147   -2.505604   -8.046497
   2 C     6.0000    0    12.011    5.460325    0.537592   -4.156825
   3 C     6.0000    0    12.011   -3.195709    4.459807   -4.157026
   4 C     6.0000    0    12.011   -2.264429   -4.997640   -4.156831
   5 C     6.0000    0    12.011    3.834346    2.764387   -0.273977
   6 C     6.0000    0    12.011   -3.850307   -2.742110   -0.273984
   7 C     6.0000    0    12.011   -0.449575    4.705513   -0.274077
   8 C     6.0000    0    12.011    0.476870   -4.702837   -0.273883
   9 C     6.0000    0    12.011    4.299895   -1.963419   -0.273880
  10 C     6.0000    0    12.011   -4.311203    1.938434   -0.274081
  11 C     6.0000    0    12.011   -1.108991   -2.447419    0.747607
  12 C     6.0000    0    12.011   -1.565062    2.184136    0.747512
  13 C     6.0000    0    12.011    2.674020    0.263326    0.747611
  14 C     6.0000    0    12.011    1.138188    2.511524   -7.063080
  15 C     6.0000    0    12.011    1.606229   -2.241575   -7.062982
  16 C     6.0000    0    12.011   -2.744098   -0.270358   -7.063084
  17 C     6.0000    0    12.011    3.833896    2.762335   -3.200578
  18 C     6.0000    0    12.011   -3.848215   -2.742341   -3.200585
  19 C     6.0000    0    12.011   -0.450706    4.703770   -3.200678
  20 C     6.0000    0    12.011    0.475432   -4.701469   -3.200484
  21 C     6.0000    0    12.011    4.299066   -1.961615   -3.200481
  22 C     6.0000    0    12.011   -4.309184    1.938948   -3.200681
  23 C     6.0000    0    12.011    1.200822    2.649898   -4.251629
  24 C     6.0000    0    12.011   -2.895267   -0.285186   -4.251633
  25 C     6.0000    0    12.011    2.737539    0.269398   -8.046494
  26 C     6.0000    0    12.011   -1.602029    2.235739   -8.046595
  27 N     7.0000    0    14.007    0.000000    0.000000    0.000000
  28 H     1.0000    0     1.008   -1.923747   -4.245950   -7.384872
  29 H     1.0000    0     1.008   -1.129525   -2.493304  -10.068467
  30 H     1.0000    0     1.008    5.493370    0.540804   -6.178543
  31 H     1.0000    0     1.008    7.350827    0.723764   -3.464060
  32 H     1.0000    0     1.008   -4.299525    6.000247   -3.451893
  33 H     1.0000    0     1.008   -3.222721    4.497507   -6.178495
  34 H     1.0000    0     1.008   -2.278090   -5.027895   -6.178550
  35 H     1.0000    0     1.008   -3.048477   -6.727936   -3.464069
  36 H     1.0000    0     1.008    2.739885    4.328613    0.392271
  37 H     1.0000    0     1.008    5.739858    2.922591    0.383668
  38 H     1.0000    0     1.008   -4.626908   -4.485920    0.392758
  39 H     1.0000    0     1.008   -4.967822   -1.190399    0.383154
  40 H     1.0000    0     1.008   -1.571486    6.249984    0.392597
  41 H     1.0000    0     1.008    1.452978    4.897464    0.383131
  42 H     1.0000    0     1.008    2.378734   -4.537110    0.392436
  43 H     1.0000    0     1.008   -0.338903   -6.432150    0.383759
  44 H     1.0000    0     1.008    6.198376   -1.764042    0.392864
  45 H     1.0000    0     1.008    3.514827   -3.707042    0.383326
  46 H     1.0000    0     1.008   -5.118637    0.208520    0.392235
  47 H     1.0000    0     1.008   -5.400972    3.509581    0.383494
  48 H     1.0000    0     1.008   -1.118765   -2.468882    2.769468
  49 H     1.0000    0     1.008   -1.578843    2.203364    2.769372
  50 H     1.0000    0     1.008    2.697483    0.265679    2.769471
  51 H     1.0000    0     1.008    1.921975    4.241244   -7.757501
  52 H     1.0000    0     1.008    2.712345   -3.785225   -7.757336
  53 H     1.0000    0     1.008   -4.633970   -0.456469   -7.757507
  54 H     1.0000    0     1.008    4.636301    4.499314   -3.854467
  55 H     1.0000    0     1.008   -5.750946   -2.943748   -3.854476
  56 H     1.0000    0     1.008    0.326261    6.452275   -3.854568
  57 H     1.0000    0     1.008    1.578525   -6.264872   -3.854305
  58 H     1.0000    0     1.008    5.424859   -3.508751   -3.854302
  59 H     1.0000    0     1.008   -6.214652    1.765334   -3.854573
  60 H     1.0000    0     1.008    2.724517    0.268074  -10.068475
  61 H     1.0000    0     1.008    4.638897    0.456639   -7.384452
  62 H     1.0000    0     1.008   -2.714940    3.788871   -7.385038
  63 H     1.0000    0     1.008   -1.594108    2.224688  -10.068564

--------------------------------
INTERNAL COORDINATES (ANGSTROEM)
--------------------------------
 C      0   0   0     0.000000000000     0.00000000     0.00000000
 C      1   0   0     2.506159188970     0.00000000     0.00000000
 C      1   2   0     2.516468737342   120.47980035     0.00000000
 C      2   1   3     4.360203420807    75.28951497   283.77948098
 C      1   2   3     2.516468891801    60.13666438   174.71907257
 C      3   1   2     2.520068780134    91.79194710   121.28833100
 C      5   1   2     2.520068763058    91.79201991   236.05607766
 C      6   3   1     2.488818367451   120.26272269   304.19020216
 C      7   5   1     2.513948947449    60.08027953   306.41229826
 C      9   7   5     2.488817352279   120.00002880   109.82545100
 C      7   5   1     2.488816776705   120.26270161    55.80983234
 C      7   5   1     1.555934702108    91.16206224   325.68709311
 C      8   6   3     1.555934052138    89.52038818    91.06561729
 C      6   3   1     1.555934061660    91.16212210    34.31292445
 C      3   1   2     2.947455098679    65.88562638    32.41919377
 C      1   2   3     1.489925410449    35.15414078   323.08151362
 C      2   1   3     1.547529030745    92.09616880   273.73521378
 C      3   1   2     1.543634497682    91.74891423    85.78589530
 C      5   1   2     1.543634475674    91.74900362   271.55851523
 C      4   2   1     1.543634426224    89.43441787    30.89183768
 C      1   2   3     1.501448810828    90.89532348   191.81515947
 C      1   2   3     1.501449344310   148.15946934   329.09681936
 C      4   2   1     1.543633746462    61.29331667   278.87882687
 C     15   3   1     1.489925437907    58.60967738    79.25168916
 C     17   2   1     1.489925476652   111.18022708   326.95804086
 C     16   1   2     1.547528289656   111.18021291   121.75553494
 C     17   2   1     1.547528292557   109.09004223    89.92306829
 N     12   7   5     1.475886138594   111.44049747    93.52608414
 H      2   1   3     1.069990716308    89.79352599   164.26253072
 H      2   1   3     1.070004294789   143.07770562    40.86734300
 H      3   1   2     1.069991509765    89.65616666   336.17389656
 H      3   1   2     1.070008907195   143.45442870   213.40182388
 H      4   2   1     1.070008630951   160.93593846   213.27452142
 H      4   2   1     1.069996784567    63.07524132   143.53512799
 H     29   2   1     0.783506148186   144.53757493    32.14134818
 H      5   1   2     1.070008457497   143.45441159   143.94258787
 H      6   3   1     1.070002931896   144.60622174   267.56155984
 H      6   3   1     1.069998801729    88.85452187   143.28877486
 H      7   5   1     1.070001690823    89.32902227   216.43024000
 H      7   5   1     1.069995564152   144.34073004    91.60649894
 H      8   6   3     1.070002207787   145.14813577   215.49452433
 H     37   6   3     0.744581472653   143.67474237    62.06104382
 H      9   7   5     1.070002897628   145.37732653   145.27378866
 H      9   7   5     1.069998336861    89.16959389   270.84373779
 H     10   9   7     1.070002153610   145.14812963   144.76011294
 H     43   9   7     0.744581166911   143.67473627   300.54055368
 H     40   7   5     0.744581002298   145.51897275   298.58473537
 H     11   7   5     1.069998826880   145.69948107   144.51454590
 H     12   7   5     1.069995472819   109.98972405   211.05044894
 H     13   8   6     1.069995477078   109.98975806    90.79100381
 H     14   6   3     1.069995466052   109.98975814   148.94952883
 H     15   3   1     1.069995021169   100.46116417   182.87308404
 H     16   1   2     1.069995530443   106.99377717   240.87773465
 H     17   2   1     1.069995470472   109.17096219   209.14698706
 H     18   3   1     1.070001082832   109.14081204   209.46733766
 H     19   5   1     1.070001544530   109.14088146   150.53266270
 H     20   4   2     1.070001076630   109.14085332   120.92648837
 H     21   1   2     1.070001584034   106.41034514    92.35939567
 H     22   1   2     1.070001596099   106.41041641   291.94871451
 H     23   4   2     1.070001549668   109.14085332   258.30749265
 H     26  16   1     1.070008557445   109.46621826   177.47400824
 H     31   3   1     0.783365299144   143.60830351    31.99437319
 H     34   4   2     0.787701494228   142.83583389   341.07939124
 H     27  17   2     1.070004297030   109.46009774    59.54970987

---------------------------
INTERNAL COORDINATES (A.U.)
---------------------------
 C      0   0   0     0.000000000000     0.00000000     0.00000000
 C      1   0   0     4.735954515164     0.00000000     0.00000000
 C      1   2   0     4.755436738150   120.47980035     0.00000000
 C      2   1   3     8.239590353513    75.28951497   283.77948098
 C      1   2   3     4.755437030037    60.13666438   174.71907257
 C      3   1   2     4.762239833098    91.79194710   121.28833100
 C      5   1   2     4.762239800830    91.79201991   236.05607766
 C      6   3   1     4.703185111556   120.26272269   304.19020216
 C      7   5   1     4.750675025338    60.08027953   306.41229826
 C      9   7   5     4.703183193158   120.00002880   109.82545100
 C      7   5   1     4.703182105481   120.26270161    55.80983234
 C      7   5   1     2.940290469248    91.16206224   325.68709311
 C      8   6   3     2.940289240983    89.52038818    91.06561729
 C      6   3   1     2.940289258978    91.16212210    34.31292445
 C      3   1   2     5.569882928534    65.88562638    32.41919377
 C      1   2   3     2.815550985719    35.15414078   323.08151362
 C      2   1   3     2.924406052401    92.09616880   273.73521378
 C      3   1   2     2.917046451492    91.74891423    85.78589530
 C      5   1   2     2.917046409903    91.74900362   271.55851523
 C      4   2   1     2.917046316456    89.43441787    30.89183768
 C      1   2   3     2.837327056567    90.89532348   191.81515947
 C      1   2   3     2.837328064701   148.15946934   329.09681936
 C      4   2   1     2.917045031892    61.29331667   278.87882687
 C     15   3   1     2.815551037607    58.60967738    79.25168916
 C     17   2   1     2.815551110825   111.18022708   326.95804086
 C     16   1   2     2.924404651945   111.18021291   121.75553494
 C     17   2   1     2.924404657428   109.09004223    89.92306829
 N     12   7   5     2.789020606793   111.44049747    93.52608414
 H      2   1   3     2.021989419660    89.79352599   164.26253072
 H      2   1   3     2.022015079271   143.07770562    40.86734300
 H      3   1   2     2.021990919076    89.65616666   336.17389656
 H      3   1   2     2.022023795455   143.45442870   213.40182388
 H      4   2   1     2.022023273429   160.93593846   213.27452142
 H      4   2   1     2.022000887007    63.07524132   143.53512799
 H     29   2   1     1.480612044315   144.53757493    32.14134818
 H      5   1   2     2.022022945648   143.45441159   143.94258787
 H      6   3   1     2.022012503776   144.60622174   267.56155984
 H      6   3   1     2.022004698892    88.85452187   143.28877486
 H      7   5   1     2.022010158489    89.32902227   216.43024000
 H      7   5   1     2.021998580759   144.34073004    91.60649894
 H      8   6   3     2.022011135409   145.14813577   215.49452433
 H     37   6   3     1.407055067706   143.67474237    62.06104382
 H      9   7   5     2.022012439019   145.37732653   145.27378866
 H      9   7   5     2.022003820418    89.16959389   270.84373779
 H     10   9   7     2.022011033030   145.14812963   144.76011294
 H     43   9   7     1.407054489937   143.67473627   300.54055368
 H     40   7   5     1.407054178863   145.51897275   298.58473537
 H     11   7   5     2.022004746420   145.69948107   144.51454590
 H     12   7   5     2.021998408164   109.98972405   211.05044894
 H     13   8   6     2.021998416212   109.98975806    90.79100381
 H     14   6   3     2.021998395376   109.98975814   148.94952883
 H     15   3   1     2.021997554669   100.46116417   182.87308404
 H     16   1   2     2.021998517057   106.99377717   240.87773465
 H     17   2   1     2.021998403729   109.17096219   209.14698706
 H     18   3   1     2.022009009552   109.14081204   209.46733766
 H     19   5   1     2.022009882034   109.14088146   150.53266270
 H     20   4   2     2.022008997832   109.14085332   120.92648837
 H     21   1   2     2.022009956686   106.41034514    92.35939567
 H     22   1   2     2.022009979485   106.41041641   291.94871451
 H     23   4   2     2.022009891745   109.14085332   258.30749265
 H     26  16   1     2.022023134523   109.46621826   177.47400824
 H     31   3   1     1.480345878199   143.60830351    31.99437319
 H     34   4   2     1.488540099372   142.83583389   341.07939124
 H     27  17   2     2.022015083506   109.46009774    59.54970987

---------------------
BASIS SET INFORMATION
---------------------
There are 3 groups of distinct atoms

 Group   1 Type C   : 10s5p1d contracted to 6s2p1d pattern {511111/41/1}
 Group   2 Type N   : 10s5p1d contracted to 6s2p1d pattern {511111/41/1}
 Group   3 Type H   : 6s1p contracted to 4s1p pattern {3111/1}

Atom   0C    basis set group =>   1
Atom   1C    basis set group =>   1
Atom   2C    basis set group =>   1
Atom   3C    basis set group =>   1
Atom   4C    basis set group =>   1
Atom   5C    basis set group =>   1
Atom   6C    basis set group =>   1
Atom   7C    basis set group =>   1
Atom   8C    basis set group =>   1
Atom   9C    basis set group =>   1
Atom  10C    basis set group =>   1
Atom  11C    basis set group =>   1
Atom  12C    basis set group =>   1
Atom  13C    basis set group =>   1
Atom  14C    basis set group =>   1
Atom  15C    basis set group =>   1
Atom  16C    basis set group =>   1
Atom  17C    basis set group =>   1
Atom  18C    basis set group =>   1
Atom  19C    basis set group =>   1
Atom  20C    basis set group =>   1
Atom  21C    basis set group =>   1
Atom  22C    basis set group =>   1
Atom  23C    basis set group =>   1
Atom  24C    basis set group =>   1
Atom  25C    basis set group =>   1
Atom  26C    basis set group =>   1
Atom  27N    basis set group =>   2
Atom  28H    basis set group =>   3
Atom  29H    basis set group =>   3
Atom  30H    basis set group =>   3
Atom  31H    basis set group =>   3
Atom  32H    basis set group =>   3
Atom  33H    basis set group =>   3
Atom  34H    basis set group =>   3
Atom  35H    basis set group =>   3
Atom  36H    basis set group =>   3
Atom  37H    basis set group =>   3
Atom  38H    basis set group =>   3
Atom  39H    basis set group =>   3
Atom  40H    basis set group =>   3
Atom  41H    basis set group =>   3
Atom  42H    basis set group =>   3
Atom  43H    basis set group =>   3
Atom  44H    basis set group =>   3
Atom  45H    basis set group =>   3
Atom  46H    basis set group =>   3
Atom  47H    basis set group =>   3
Atom  48H    basis set group =>   3
Atom  49H    basis set group =>   3
Atom  50H    basis set group =>   3
Atom  51H    basis set group =>   3
Atom  52H    basis set group =>   3
Atom  53H    basis set group =>   3
Atom  54H    basis set group =>   3
Atom  55H    basis set group =>   3
Atom  56H    basis set group =>   3
Atom  57H    basis set group =>   3
Atom  58H    basis set group =>   3
Atom  59H    basis set group =>   3
Atom  60H    basis set group =>   3
Atom  61H    basis set group =>   3
Atom  62H    basis set group =>   3
Atom  63H    basis set group =>   3
---------------------------------
AUXILIARY/J BASIS SET INFORMATION
---------------------------------
There are 3 groups of distinct atoms

 Group   1 Type C   : 17s13p12d2f contracted to 17s13p12d2f pattern {11111111111111111/1111111111111/111111111111/11}
 Group   2 Type N   : 17s13p12d2f contracted to 17s13p12d2f pattern {11111111111111111/1111111111111/111111111111/11}
 Group   3 Type H   : 15s6p1d contracted to 15s6p1d pattern {111111111111111/111111/1}

Atom   0C    basis set group =>   1
Atom   1C    basis set group =>   1
Atom   2C    basis set group =>   1
Atom   3C    basis set group =>   1
Atom   4C    basis set group =>   1
Atom   5C    basis set group =>   1
Atom   6C    basis set group =>   1
Atom   7C    basis set group =>   1
Atom   8C    basis set group =>   1
Atom   9C    basis set group =>   1
Atom  10C    basis set group =>   1
Atom  11C    basis set group =>   1
Atom  12C    basis set group =>   1
Atom  13C    basis set group =>   1
Atom  14C    basis set group =>   1
Atom  15C    basis set group =>   1
Atom  16C    basis set group =>   1
Atom  17C    basis set group =>   1
Atom  18C    basis set group =>   1
Atom  19C    basis set group =>   1
Atom  20C    basis set group =>   1
Atom  21C    basis set group =>   1
Atom  22C    basis set group =>   1
Atom  23C    basis set group =>   1
Atom  24C    basis set group =>   1
Atom  25C    basis set group =>   1
Atom  26C    basis set group =>   1
Atom  27N    basis set group =>   2
Atom  28H    basis set group =>   3
Atom  29H    basis set group =>   3
Atom  30H    basis set group =>   3
Atom  31H    basis set group =>   3
Atom  32H    basis set group =>   3
Atom  33H    basis set group =>   3
Atom  34H    basis set group =>   3
Atom  35H    basis set group =>   3
Atom  36H    basis set group =>   3
Atom  37H    basis set group =>   3
Atom  38H    basis set group =>   3
Atom  39H    basis set group =>   3
Atom  40H    basis set group =>   3
Atom  41H    basis set group =>   3
Atom  42H    basis set group =>   3
Atom  43H    basis set group =>   3
Atom  44H    basis set group =>   3
Atom  45H    basis set group =>   3
Atom  46H    basis set group =>   3
Atom  47H    basis set group =>   3
Atom  48H    basis set group =>   3
Atom  49H    basis set group =>   3
Atom  50H    basis set group =>   3
Atom  51H    basis set group =>   3
Atom  52H    basis set group =>   3
Atom  53H    basis set group =>   3
Atom  54H    basis set group =>   3
Atom  55H    basis set group =>   3
Atom  56H    basis set group =>   3
Atom  57H    basis set group =>   3
Atom  58H    basis set group =>   3
Atom  59H    basis set group =>   3
Atom  60H    basis set group =>   3
Atom  61H    basis set group =>   3
Atom  62H    basis set group =>   3
Atom  63H    basis set group =>   3
---------------------------------
AUXILIARY/C BASIS SET INFORMATION
---------------------------------
There are 3 groups of distinct atoms

 Group   1 Type C   : 17s13p12d2f contracted to 17s13p12d2f pattern {11111111111111111/1111111111111/111111111111/11}
 Group   2 Type N   : 17s13p12d2f contracted to 17s13p12d2f pattern {11111111111111111/1111111111111/111111111111/11}
 Group   3 Type H   : 15s6p1d contracted to 15s6p1d pattern {111111111111111/111111/1}

Atom   0C    basis set group =>   1
Atom   1C    basis set group =>   1
Atom   2C    basis set group =>   1
Atom   3C    basis set group =>   1
Atom   4C    basis set group =>   1
Atom   5C    basis set group =>   1
Atom   6C    basis set group =>   1
Atom   7C    basis set group =>   1
Atom   8C    basis set group =>   1
Atom   9C    basis set group =>   1
Atom  10C    basis set group =>   1
Atom  11C    basis set group =>   1
Atom  12C    basis set group =>   1
Atom  13C    basis set group =>   1
Atom  14C    basis set group =>   1
Atom  15C    basis set group =>   1
Atom  16C    basis set group =>   1
Atom  17C    basis set group =>   1
Atom  18C    basis set group =>   1
Atom  19C    basis set group =>   1
Atom  20C    basis set group =>   1
Atom  21C    basis set group =>   1
Atom  22C    basis set group =>   1
Atom  23C    basis set group =>   1
Atom  24C    basis set group =>   1
Atom  25C    basis set group =>   1
Atom  26C    basis set group =>   1
Atom  27N    basis set group =>   2
Atom  28H    basis set group =>   3
Atom  29H    basis set group =>   3
Atom  30H    basis set group =>   3
Atom  31H    basis set group =>   3
Atom  32H    basis set group =>   3
Atom  33H    basis set group =>   3
Atom  34H    basis set group =>   3
Atom  35H    basis set group =>   3
Atom  36H    basis set group =>   3
Atom  37H    basis set group =>   3
Atom  38H    basis set group =>   3
Atom  39H    basis set group =>   3
Atom  40H    basis set group =>   3
Atom  41H    basis set group =>   3
Atom  42H    basis set group =>   3
Atom  43H    basis set group =>   3
Atom  44H    basis set group =>   3
Atom  45H    basis set group =>   3
Atom  46H    basis set group =>   3
Atom  47H    basis set group =>   3
Atom  48H    basis set group =>   3
Atom  49H    basis set group =>   3
Atom  50H    basis set group =>   3
Atom  51H    basis set group =>   3
Atom  52H    basis set group =>   3
Atom  53H    basis set group =>   3
Atom  54H    basis set group =>   3
Atom  55H    basis set group =>   3
Atom  56H    basis set group =>   3
Atom  57H    basis set group =>   3
Atom  58H    basis set group =>   3
Atom  59H    basis set group =>   3
Atom  60H    basis set group =>   3
Atom  61H    basis set group =>   3
Atom  62H    basis set group =>   3
Atom  63H    basis set group =>   3
----------------------------------
AUXILIARY/JK BASIS SET INFORMATION
----------------------------------
There are 3 groups of distinct atoms

 Group   1 Type C   : 17s13p12d2f contracted to 17s13p12d2f pattern {11111111111111111/1111111111111/111111111111/11}
 Group   2 Type N   : 17s13p12d2f contracted to 17s13p12d2f pattern {11111111111111111/1111111111111/111111111111/11}
 Group   3 Type H   : 15s6p1d contracted to 15s6p1d pattern {111111111111111/111111/1}

Atom   0C    basis set group =>   1
Atom   1C    basis set group =>   1
Atom   2C    basis set group =>   1
Atom   3C    basis set group =>   1
Atom   4C    basis set group =>   1
Atom   5C    basis set group =>   1
Atom   6C    basis set group =>   1
Atom   7C    basis set group =>   1
Atom   8C    basis set group =>   1
Atom   9C    basis set group =>   1
Atom  10C    basis set group =>   1
Atom  11C    basis set group =>   1
Atom  12C    basis set group =>   1
Atom  13C    basis set group =>   1
Atom  14C    basis set group =>   1
Atom  15C    basis set group =>   1
Atom  16C    basis set group =>   1
Atom  17C    basis set group =>   1
Atom  18C    basis set group =>   1
Atom  19C    basis set group =>   1
Atom  20C    basis set group =>   1
Atom  21C    basis set group =>   1
Atom  22C    basis set group =>   1
Atom  23C    basis set group =>   1
Atom  24C    basis set group =>   1
Atom  25C    basis set group =>   1
Atom  26C    basis set group =>   1
Atom  27N    basis set group =>   2
Atom  28H    basis set group =>   3
Atom  29H    basis set group =>   3
Atom  30H    basis set group =>   3
Atom  31H    basis set group =>   3
Atom  32H    basis set group =>   3
Atom  33H    basis set group =>   3
Atom  34H    basis set group =>   3
Atom  35H    basis set group =>   3
Atom  36H    basis set group =>   3
Atom  37H    basis set group =>   3
Atom  38H    basis set group =>   3
Atom  39H    basis set group =>   3
Atom  40H    basis set group =>   3
Atom  41H    basis set group =>   3
Atom  42H    basis set group =>   3
Atom  43H    basis set group =>   3
Atom  44H    basis set group =>   3
Atom  45H    basis set group =>   3
Atom  46H    basis set group =>   3
Atom  47H    basis set group =>   3
Atom  48H    basis set group =>   3
Atom  49H    basis set group =>   3
Atom  50H    basis set group =>   3
Atom  51H    basis set group =>   3
Atom  52H    basis set group =>   3
Atom  53H    basis set group =>   3
Atom  54H    basis set group =>   3
Atom  55H    basis set group =>   3
Atom  56H    basis set group =>   3
Atom  57H    basis set group =>   3
Atom  58H    basis set group =>   3
Atom  59H    basis set group =>   3
Atom  60H    basis set group =>   3
Atom  61H    basis set group =>   3
Atom  62H    basis set group =>   3
Atom  63H    basis set group =>   3


           ************************************************************
           *        Program running with 72 parallel MPI-processes    *
           *              working on a shared directory               *
           ************************************************************
------------------------------------------------------------------------------
                           ORCA GTO INTEGRAL CALCULATION
                           -- RI-GTO INTEGRALS CHOSEN --
------------------------------------------------------------------------------

                         BASIS SET STATISTICS AND STARTUP INFO

Gaussian basis set:
 # of primitive gaussian shells          ...  700
 # of primitive gaussian functions       ... 1164
 # of contracted shells                  ...  432
 # of contracted basis functions         ...  728
 Highest angular momentum                ...    2
 Maximum contraction depth               ...    5
Auxiliary gaussian basis set:
 # of primitive gaussian shells          ... 2024
 # of primitive gaussian functions       ... 5008
 # of contracted shells                  ... 2024
 # of contracted aux-basis functions     ... 5008
 Highest angular momentum                ...    3
 Maximum contraction depth               ...    1
Ratio of auxiliary to basis functions    ...  6.88
Integral package used                  ... LIBINT
 One Electron integrals                  ... done
 Ordering auxiliary basis shells         ... done
 Integral threshhold             Thresh  ...  1.000e-10
 Primitive cut-off               TCut    ...  1.000e-11
 Pre-screening matrix                    ... done
 Shell pair data                         ... 
 Ordering of the shell pairs             ... done (   0.017 sec) 66490 of 93528 pairs
 Determination of significant pairs      ... done (   0.000 sec)
 Creation of shell pair data             ... done (   0.010 sec)
 Storage of shell pair data              ... done (   0.113 sec)
 Shell pair data done in (   0.142 sec)
 Computing two index integrals           ... done
 Cholesky decomposition of the V-matrix  ... done


Timings:
 Total evaluation time                   ...   5.137 sec (  0.086 min)
 One electron matrix time                ...   0.917 sec (  0.015 min) = 17.9%
 Schwartz matrix evaluation time         ...   0.402 sec (  0.007 min) =  7.8%
 Two index repulsion integral time       ...   1.126 sec (  0.019 min) = 21.9%
 Cholesky decomposition of V             ...   2.369 sec (  0.039 min) = 46.1%
 Three index repulsion integral time     ...   0.007 sec (  0.000 min) =  0.1%



           ************************************************************
           *        Program running with 72 parallel MPI-processes    *
           *              working on a shared directory               *
           ************************************************************
-------------------------------------------------------------------------------
                                 ORCA SCF
-------------------------------------------------------------------------------

------------
SCF SETTINGS
------------
Hamiltonian:
 Density Functional     Method          .... DFT(GTOs)
 Exchange Functional    Exchange        .... PBE
   PBE kappa parameter   XKappa         ....  0.804000
   PBE mue parameter    XMuePBE         ....  0.219520
 Correlation Functional Correlation     .... PBE
   PBE beta parameter  CBetaPBE         ....  0.066725
 LDA part of GGA corr.  LDAOpt          .... PW91-LDA
 Gradients option       PostSCFGGA      .... off
   Density functional embedding theory  .... OFF
   NL short-range parameter             ....  6.400000
 RI-approximation to the Coulomb term is turned on
   Number of auxiliary basis functions  .... 5008
   RIJ-COSX (HFX calculated with COS-X)).... on


General Settings:
 Integral files         IntName         .... zfs
 Hartree-Fock type      HFTyp           .... UHF
 Total Charge           Charge          ....   -1
 Multiplicity           Mult            ....    3
 Number of Electrons    NEL             ....  206
 Basis Dimension        Dim             ....  728
 Nuclear Repulsion      ENuc            ....   3308.0184382063 Eh

Convergence Acceleration:
 DIIS                   CNVDIIS         .... on
   Start iteration      DIISMaxIt       ....    12
   Startup error        DIISStart       ....  0.200000
   # of expansion vecs  DIISMaxEq       ....     5
   Bias factor          DIISBfac        ....   1.050
   Max. coefficient     DIISMaxC        ....  10.000
 Newton-Raphson         CNVNR           .... off
 SOSCF                  CNVSOSCF        .... off
 Level Shifting         CNVShift        .... on
   Level shift para.    LevelShift      ....    0.2500
   Turn off err/grad.   ShiftErr        ....    0.0010
 Zerner damping         CNVZerner       .... off
 Static damping         CNVDamp         .... on
   Fraction old density DampFac         ....    0.7000
   Max. Damping (<1)    DampMax         ....    0.9800
   Min. Damping (>=0)   DampMin         ....    0.0000
   Turn off err/grad.   DampErr         ....    0.1000
 Fernandez-Rico         CNVRico         .... off

SCF Procedure:
 Maximum # iterations   MaxIter         ....   125
 SCF integral mode      SCFMode         .... Direct
   Integral package                     .... LIBINT
 Reset frequency        DirectResetFreq ....    20
 Integral Threshold     Thresh          ....  1.000e-10 Eh
 Primitive CutOff       TCut            ....  1.000e-11 Eh

Convergence Tolerance:
 Convergence Check Mode ConvCheckMode   .... Total+1el-Energy
 Convergence forced     ConvForced      .... 0
 Energy Change          TolE            ....  1.000e-06 Eh
 1-El. energy change                    ....  1.000e-03 Eh
 DIIS Error             TolErr          ....  1.000e-06


Diagonalization of the overlap matrix:
Smallest eigenvalue                        ... 1.744e-04
Time for diagonalization                   ...    0.141 sec
Threshold for overlap eigenvalues          ... 1.000e-08
Number of eigenvalues below threshold      ... 0
Time for construction of square roots      ...    0.421 sec
Total time needed                          ...    0.566 sec

-------------------
DFT GRID GENERATION
-------------------

General Integration Accuracy     IntAcc      ...  4.340
Radial Grid Type                 RadialGrid  ... Gauss-Chebyshev
Angular Grid (max. acc.)         AngularGrid ... Lebedev-110
Angular grid pruning method      GridPruning ... 3 (G Style)
Weight generation scheme         WeightScheme... Becke
Basis function cutoff            BFCut       ...    1.0000e-10
Integration weight cutoff        WCut        ...    1.0000e-14
Grids for H and He will be reduced by one unit

# of grid points (after initial pruning)     ...  74998 (   0.0 sec)
# of grid points (after weights+screening)   ...  62521 (   0.1 sec)
nearest neighbour list constructed           ...    0.0 sec
Grid point re-assignment to atoms done       ...    0.0 sec
Grid point division into batches done        ...    0.1 sec
Reduced shell lists constructed in    0.1 sec

Total number of grid points                  ...    62521
Total number of batches                      ...     1009
Average number of points per batch           ...       61
Average number of grid points per atom       ...      977
Average number of shells per batch           ...   227.81 (52.73%)
Average number of basis functions per batch  ...   458.06 (62.92%)
Average number of large shells per batch     ...   171.19 (75.14%)
Average number of large basis fcns per batch ...   341.19 (74.48%)
Maximum spatial batch extension              ...   2.40,  2.04,  2.38 au
Average spatial batch extension              ...   0.03,  0.03,  0.03 au

Time for grid setup =    0.596 sec

------------------------------
INITIAL GUESS: MODEL POTENTIAL
------------------------------
Loading Hartree-Fock densities                     ... done
Calculating cut-offs                               ... done
Setting up the integral package                    ... done
Initializing the effective Hamiltonian             ... done
Starting the Coulomb interaction                   ... done (   0.1 sec)
Reading the grid                                   ... done
Mapping shells                                     ... done
Starting the XC term evaluation                    ... done (   0.2 sec)
  promolecular density results
     # of electrons  =    204.965679163
     EX              =   -156.125046174
     EC              =     -7.166436848
     EX+EC           =   -163.291483022
Transforming the Hamiltonian                       ... done (   0.1 sec)
Diagonalizing the Hamiltonian                      ... done (   0.1 sec)
Back transforming the eigenvectors                 ... done (   0.1 sec)
Now organizing SCF variables                       ... done
                      ------------------
                      INITIAL GUESS DONE (   1.4 sec)
                      ------------------
--------------------
COSX GRID GENERATION
--------------------

General Integration Accuracy     IntAcc      ...  3.340
Radial Grid Type                 RadialGrid  ... Gauss-Chebyshev
Angular Grid (max. acc.)         AngularGrid ... Lebedev-50
Angular grid pruning method      GridPruning ... 3 (G Style)
Weight generation scheme         WeightScheme... Becke
Basis function cutoff            BFCut       ...    1.0000e-10
Integration weight cutoff        WCut        ...    1.0000e-14
Grids for H and He will be reduced by one unit

# of grid points (after initial pruning)     ...  27746 (   0.0 sec)
# of grid points (after weights+screening)   ...  23444 (   0.0 sec)
nearest neighbour list constructed           ...    0.0 sec
Grid point re-assignment to atoms done       ...    0.0 sec
Grid point division into batches done        ...    0.0 sec
Reduced shell lists constructed in    0.0 sec

Total number of grid points                  ...    23444
Total number of batches                      ...      392
Average number of points per batch           ...       59
Average number of grid points per atom       ...      366
Average number of shells per batch           ...   224.00 (51.85%)
Average number of basis functions per batch  ...   448.00 (61.54%)
Average number of large shells per batch     ...   166.71 (74.43%)
Average number of large basis fcns per batch ...   335.29 (74.84%)
Maximum spatial batch extension              ...   2.99,  3.05,  3.07 au
Average spatial batch extension              ...   0.04,  0.04,  0.04 au

Overlap Fitting                  UseSFitting ... on
Constructing numerical overlap ... done (      0.0 sec)
Inverting numerical overlap    ... done (      0.0 sec)
Obtaining analytic overlap     ... done (      0.0 sec)
Final contraction and storage  ... done (      0.1 sec)


General Integration Accuracy     IntAcc      ...  3.670
Radial Grid Type                 RadialGrid  ... Gauss-Chebyshev
Angular Grid (max. acc.)         AngularGrid ... Lebedev-50
Angular grid pruning method      GridPruning ... 3 (G Style)
Weight generation scheme         WeightScheme... Becke
Basis function cutoff            BFCut       ...    1.0000e-10
Integration weight cutoff        WCut        ...    1.0000e-14
Grids for H and He will be reduced by one unit

# of grid points (after initial pruning)     ...  35464 (   0.0 sec)
# of grid points (after weights+screening)   ...  29862 (   0.0 sec)
nearest neighbour list constructed           ...    0.0 sec
Grid point re-assignment to atoms done       ...    0.0 sec
Grid point division into batches done        ...    0.0 sec
Reduced shell lists constructed in    0.0 sec

Total number of grid points                  ...    29862
Total number of batches                      ...      499
Average number of points per batch           ...       59
Average number of grid points per atom       ...      467
Average number of shells per batch           ...   228.00 (52.78%)
Average number of basis functions per batch  ...   458.25 (62.95%)
Average number of large shells per batch     ...   169.62 (74.40%)
Average number of large basis fcns per batch ...   341.62 (74.55%)
Maximum spatial batch extension              ...   3.30,  2.52,  2.68 au
Average spatial batch extension              ...   0.03,  0.03,  0.03 au

Overlap Fitting                  UseSFitting ... on
Constructing numerical overlap ... done (      0.1 sec)
Inverting numerical overlap    ... done (      0.0 sec)
Obtaining analytic overlap     ... done (      0.0 sec)
Final contraction and storage  ... done (      0.1 sec)


General Integration Accuracy     IntAcc      ...  4.010
Radial Grid Type                 RadialGrid  ... Gauss-Chebyshev
Angular Grid (max. acc.)         AngularGrid ... Lebedev-110
Angular grid pruning method      GridPruning ... 3 (G Style)
Weight generation scheme         WeightScheme... Becke
Basis function cutoff            BFCut       ...    1.0000e-10
Integration weight cutoff        WCut        ...    1.0000e-14
Grids for H and He will be reduced by one unit

# of grid points (after initial pruning)     ...  65152 (   0.0 sec)
# of grid points (after weights+screening)   ...  54583 (   0.1 sec)
nearest neighbour list constructed           ...    0.0 sec
Grid point re-assignment to atoms done       ...    0.0 sec
Grid point division into batches done        ...    0.0 sec
Reduced shell lists constructed in    0.1 sec

Total number of grid points                  ...    54583
Total number of batches                      ...      884
Average number of points per batch           ...       61
Average number of grid points per atom       ...      853
Average number of shells per batch           ...   227.14 (52.58%)
Average number of basis functions per batch  ...   456.14 (62.66%)
Average number of large shells per batch     ...   170.50 (75.06%)
Average number of large basis fcns per batch ...   339.50 (74.43%)
Maximum spatial batch extension              ...   2.59,  2.42,  2.28 au
Average spatial batch extension              ...   0.03,  0.03,  0.03 au

Overlap Fitting                  UseSFitting ... on
Constructing numerical overlap ... done (      0.1 sec)
Inverting numerical overlap    ... done (      0.0 sec)
Obtaining analytic overlap     ... done (      0.0 sec)
Final contraction and storage  ... done (      0.1 sec)

Time for X-Grid setup             =    1.389 sec
--------------
SCF ITERATIONS
--------------
ITER       Energy         Delta-E        Max-DP      RMS-DP      [F,P]     Damp
               ***  Starting incremental Fock matrix formation  ***
  0  -1102.3545050719   0.000000000000 7.81109948  0.02040902  0.1511424 0.7000
  1  -1102.7797046026  -0.425199530687 4.93134492  0.01273358  0.0656699 0.7000
                               ***Turning on DIIS***
  2  -1102.8697897298  -0.090085127241 0.81459470  0.00359415  0.0352228 0.0000
  3  -1103.1232064918  -0.253416761959 4.51029109  0.01132407  0.0323380 0.0000
  4  -1103.1564197827  -0.033213290914 1.45558108  0.00364853  0.0198663 0.0000
  5  -1103.1657745842  -0.009354801540 0.64957471  0.00160533  0.0058010 0.0000
  6  -1103.1671152786  -0.001340694350 0.43881239  0.00108159  0.0014127 0.0000
  7  -1103.1673221371  -0.000206858527 0.26442851  0.00064079  0.0023745 0.0000
  8  -1103.1674269968  -0.000104859681 0.55135171  0.00132197  0.0005468 0.0000
  9  -1103.1674937994  -0.000066802553 0.09980309  0.00028939  0.0008020 0.0000
 10  -1103.1675003419  -0.000006542529 0.08892196  0.00022632  0.0005246 0.0000
 11  -1103.1675050545  -0.000004712658 0.02567170  0.00006618  0.0003581 0.0000
 12  -1103.1675069967  -0.000001942176 0.00726110  0.00001754  0.0000657 0.0000
 13  -1103.1675069016   0.000000095070 0.00671484  0.00001148  0.0000941 0.0000
                 **** Energy Check signals convergence ****

               *****************************************************
               *                     SUCCESS                       *
               *           SCF CONVERGED AFTER  14 CYCLES          *
               *****************************************************

Setting up the final grid:

General Integration Accuracy     IntAcc      ...  4.670
Radial Grid Type                 RadialGrid  ... Gauss-Chebyshev
Angular Grid (max. acc.)         AngularGrid ... Lebedev-302
Angular grid pruning method      GridPruning ... 3 (G Style)
Weight generation scheme         WeightScheme... Becke
Basis function cutoff            BFCut       ...    1.0000e-10
Integration weight cutoff        WCut        ...    1.0000e-14
Grids for H and He will be reduced by one unit

# of grid points (after initial pruning)     ... 296120 (   0.0 sec)
# of grid points (after weights+screening)   ... 239123 (   0.2 sec)
nearest neighbour list constructed           ...    0.0 sec
Grid point re-assignment to atoms done       ...    0.1 sec
Grid point division into batches done        ...    0.8 sec
Reduced shell lists constructed in    0.9 sec

Total number of grid points                  ...   239123
Total number of batches                      ...     3767
Average number of points per batch           ...       63
Average number of grid points per atom       ...     3736
Average number of shells per batch           ...   226.93 (52.53%)
Average number of basis functions per batch  ...   456.74 (62.74%)
Average number of large shells per batch     ...   168.07 (74.07%)
Average number of large basis fcns per batch ...   332.56 (72.81%)
Maximum spatial batch extension              ...   2.02,  1.71,  2.04 au
Average spatial batch extension              ...   0.02,  0.02,  0.02 au

Final grid set up in    1.3 sec
Final integration                            ... done (   0.9 sec)
Change in XC energy                          ...    -0.000467272
Integrated number of electrons               ...   206.000405551
Previous integrated no of electrons          ...   205.996018048

----------------
TOTAL SCF ENERGY
----------------

Total Energy       :        -1103.16797435 Eh          -30018.72670 eV

Components:
Nuclear Repulsion  :         3308.01843821 Eh           90015.75802 eV
Electronic Energy  :        -4411.18641256 Eh         -120034.48472 eV
One Electron Energy:        -8103.22122305 Eh         -220499.85948 eV
Two Electron Energy:         3692.03481049 Eh          100465.37475 eV

Virial components:
Potential Energy   :        -2203.46245566 Eh          -59959.26169 eV
Kinetic Energy     :         1100.29448130 Eh           29940.53498 eV
Virial Ratio       :            2.00261157


DFT components:
N(Alpha)           :      104.000232097666 electrons
N(Beta)            :      102.000173453782 electrons
N(Total)           :      206.000405551448 electrons
E(X)               :     -159.757895766229 Eh       
E(C)               :       -7.076899135439 Eh       
E(XC)              :     -166.834794901669 Eh       
DFET-embed. en.    :        0.000000000000 Eh       

---------------
SCF CONVERGENCE
---------------

  Last Energy change         ...   -1.7833e-07  Tolerance :   1.0000e-06
  Last MAX-Density change    ...    7.3028e-04  Tolerance :   1.0000e-05
  Last RMS-Density change    ...    1.6974e-06  Tolerance :   1.0000e-06
  Last DIIS Error            ...    3.1649e-05  Tolerance :   1.0000e-06

             **** THE GBW FILE WAS UPDATED (zfs.gbw) ****
             **** DENSITY FILE WAS UPDATED (zfs.scfp) ****
             **** ENERGY FILE WAS UPDATED (zfs.en.tmp) ****
----------------------
UHF SPIN CONTAMINATION
----------------------

Warning: in a DFT calculation there is little theoretical justification to 
         calculate <S**2> as in Hartree-Fock theory. We will do it anyways
         but you should keep in mind that the values have only limited relevance

Expectation value of <S**2>     :     2.011135
Ideal value S*(S+1) for S=1.0   :     2.000000
Deviation                       :     0.011135

             **** THE GBW FILE WAS UPDATED (zfs.gbw) ****
             **** DENSITY FILE WAS UPDATED (zfs.scfp) ****
----------------
ORBITAL ENERGIES
----------------
                 SPIN UP ORBITALS
  NO   OCC          E(Eh)            E(eV) 
   0   1.0000     -13.855696      -377.0327 
   1   1.0000      -9.801430      -266.7105 
   2   1.0000      -9.801119      -266.7020 
   3   1.0000      -9.801118      -266.7020 
   4   1.0000      -9.762813      -265.6596 
   5   1.0000      -9.762782      -265.6588 
   6   1.0000      -9.762773      -265.6586 
   7   1.0000      -9.762659      -265.6554 
   8   1.0000      -9.762611      -265.6541 
   9   1.0000      -9.762497      -265.6510 
  10   1.0000      -9.755748      -265.4674 
  11   1.0000      -9.755533      -265.4615 
  12   1.0000      -9.755394      -265.4578 
  13   1.0000      -9.749260      -265.2909 
  14   1.0000      -9.748948      -265.2824 
  15   1.0000      -9.748669      -265.2748 
  16   1.0000      -9.748491      -265.2699 
  17   1.0000      -9.748357      -265.2663 
  18   1.0000      -9.748211      -265.2623 
  19   1.0000      -9.739860      -265.0351 
  20   1.0000      -9.739738      -265.0317 
  21   1.0000      -9.739134      -265.0153 
  22   1.0000      -9.735614      -264.9195 
  23   1.0000      -9.735447      -264.9150 
  24   1.0000      -9.735368      -264.9128 
  25   1.0000      -9.734583      -264.8915 
  26   1.0000      -9.734442      -264.8876 
  27   1.0000      -9.734088      -264.8780 
  28   1.0000      -0.729675       -19.8555 
  29   1.0000      -0.667425       -18.1616 
  30   1.0000      -0.652364       -17.7517 
  31   1.0000      -0.652232       -17.7481 
  32   1.0000      -0.609346       -16.5811 
  33   1.0000      -0.598223       -16.2785 
  34   1.0000      -0.597994       -16.2722 
  35   1.0000      -0.582452       -15.8493 
  36   1.0000      -0.582347       -15.8465 
  37   1.0000      -0.545775       -14.8513 
  38   1.0000      -0.521567       -14.1926 
  39   1.0000      -0.521545       -14.1920 
  40   1.0000      -0.518962       -14.1217 
  41   1.0000      -0.515878       -14.0378 
  42   1.0000      -0.515784       -14.0352 
  43   1.0000      -0.501953       -13.6588 
  44   1.0000      -0.444688       -12.1006 
  45   1.0000      -0.444606       -12.0983 
  46   1.0000      -0.423881       -11.5344 
  47   1.0000      -0.405284       -11.0283 
  48   1.0000      -0.405256       -11.0276 
  49   1.0000      -0.400268       -10.8918 
  50   1.0000      -0.397500       -10.8165 
  51   1.0000      -0.384027       -10.4499 
  52   1.0000      -0.383965       -10.4482 
  53   1.0000      -0.358435        -9.7535 
  54   1.0000      -0.357949        -9.7403 
  55   1.0000      -0.357887        -9.7386 
  56   1.0000      -0.346439        -9.4271 
  57   1.0000      -0.312903        -8.5145 
  58   1.0000      -0.308968        -8.4075 
  59   1.0000      -0.308887        -8.4053 
  60   1.0000      -0.301294        -8.1986 
  61   1.0000      -0.301227        -8.1968 
  62   1.0000      -0.282086        -7.6760 
  63   1.0000      -0.279300        -7.6001 
  64   1.0000      -0.279174        -7.5967 
  65   1.0000      -0.275631        -7.5003 
  66   1.0000      -0.275577        -7.4988 
  67   1.0000      -0.242660        -6.6031 
  68   1.0000      -0.242584        -6.6010 
  69   1.0000      -0.238247        -6.4830 
  70   1.0000      -0.231041        -6.2869 
  71   1.0000      -0.228430        -6.2159 
  72   1.0000      -0.226269        -6.1571 
  73   1.0000      -0.226237        -6.1562 
  74   1.0000      -0.212493        -5.7822 
  75   1.0000      -0.212363        -5.7787 
  76   1.0000      -0.210117        -5.7176 
  77   1.0000      -0.197014        -5.3610 
  78   1.0000      -0.190607        -5.1867 
  79   1.0000      -0.190595        -5.1864 
  80   1.0000      -0.179318        -4.8795 
  81   1.0000      -0.179280        -4.8785 
  82   1.0000      -0.171395        -4.6639 
  83   1.0000      -0.166765        -4.5379 
  84   1.0000      -0.166738        -4.5372 
  85   1.0000      -0.161149        -4.3851 
  86   1.0000      -0.158653        -4.3172 
  87   1.0000      -0.156271        -4.2523 
  88   1.0000      -0.156166        -4.2495 
  89   1.0000      -0.146974        -3.9994 
  90   1.0000      -0.146846        -3.9959 
  91   1.0000      -0.135099        -3.6762 
  92   1.0000      -0.119914        -3.2630 
  93   1.0000      -0.119871        -3.2619 
  94   1.0000      -0.095616        -2.6018 
  95   1.0000      -0.095549        -2.6000 
  96   1.0000      -0.092613        -2.5201 
  97   1.0000      -0.077029        -2.0961 
  98   1.0000      -0.059095        -1.6081 
  99   1.0000      -0.056859        -1.5472 
 100   1.0000      -0.056523        -1.5381 
 101   1.0000       0.002075         0.0565 
 102   1.0000       0.047335         1.2881 
 103   1.0000       0.047583         1.2948 
 104   0.0000       0.096958         2.6384 
 105   0.0000       0.113813         3.0970 
 106   0.0000       0.116315         3.1651 
 107   0.0000       0.117282         3.1914 
 108   0.0000       0.124656         3.3921 
 109   0.0000       0.125044         3.4026 
 110   0.0000       0.126577         3.4443 
 111   0.0000       0.130637         3.5548 
 112   0.0000       0.131402         3.5756 
 113   0.0000       0.141057         3.8383 
 114   0.0000       0.142530         3.8784 
 115   0.0000       0.143916         3.9162 
 116   0.0000       0.150439         4.0937 
 117   0.0000       0.151277         4.1164 
 118   0.0000       0.153194         4.1686 
 119   0.0000       0.155421         4.2292 
 120   0.0000       0.179188         4.8760 
 121   0.0000       0.180173         4.9028 
 122   0.0000       0.184092         5.0094 
 123   0.0000       0.184757         5.0275 
 124   0.0000       0.185066         5.0359 
 125   0.0000       0.185565         5.0495 
 126   0.0000       0.193467         5.2645 
 127   0.0000       0.194099         5.2817 
 128   0.0000       0.195976         5.3328 
 129   0.0000       0.228210         6.2099 
 130   0.0000       0.228374         6.2144 
 131   0.0000       0.230122         6.2619 
 132   0.0000       0.239592         6.5196 
 133   0.0000       0.246530         6.7084 
 134   0.0000       0.249975         6.8022 
 135   0.0000       0.250196         6.8082 
 136   0.0000       0.252013         6.8576 
 137   0.0000       0.252423         6.8688 
 138   0.0000       0.275184         7.4881 
 139   0.0000       0.276932         7.5357 
 140   0.0000       0.277332         7.5466 
 141   0.0000       0.283509         7.7147 
 142   0.0000       0.284229         7.7343 
 143   0.0000       0.292175         7.9505 
 144   0.0000       0.292831         7.9683 
 145   0.0000       0.293139         7.9767 
 146   0.0000       0.296561         8.0698 
 147   0.0000       0.297375         8.0920 
 148   0.0000       0.297765         8.1026 
 149   0.0000       0.299369         8.1463 
 150   0.0000       0.308334         8.3902 
 151   0.0000       0.308625         8.3981 
 152   0.0000       0.310945         8.4613 
 153   0.0000       0.311955         8.4887 
 154   0.0000       0.314116         8.5475 
 155   0.0000       0.327556         8.9133 
 156   0.0000       0.331946         9.0327 
 157   0.0000       0.332242         9.0408 
 158   0.0000       0.340904         9.2765 
 159   0.0000       0.343753         9.3540 
 160   0.0000       0.344049         9.3620 
 161   0.0000       0.354917         9.6578 
 162   0.0000       0.355625         9.6771 
 163   0.0000       0.356993         9.7143 
 164   0.0000       0.366313         9.9679 
 165   0.0000       0.372353        10.1322 
 166   0.0000       0.373205        10.1554 
 167   0.0000       0.374093        10.1796 
 168   0.0000       0.382031        10.3956 
 169   0.0000       0.382211        10.4005 
 170   0.0000       0.382772        10.4158 
 171   0.0000       0.388982        10.5847 
 172   0.0000       0.389701        10.6043 
 173   0.0000       0.390100        10.6152 
 174   0.0000       0.393024        10.6947 
 175   0.0000       0.393351        10.7036 
 176   0.0000       0.394484        10.7345 
 177   0.0000       0.397633        10.8201 
 178   0.0000       0.397910        10.8277 
 179   0.0000       0.410862        11.1801 
 180   0.0000       0.411652        11.2016 
 181   0.0000       0.413609        11.2549 
 182   0.0000       0.427370        11.6293 
 183   0.0000       0.428308        11.6548 
 184   0.0000       0.428330        11.6555 
 185   0.0000       0.428980        11.6731 
 186   0.0000       0.429168        11.6782 
 187   0.0000       0.431720        11.7477 
 188   0.0000       0.433083        11.7848 
 189   0.0000       0.433552        11.7976 
 190   0.0000       0.436962        11.8904 
 191   0.0000       0.437961        11.9175 
 192   0.0000       0.438612        11.9352 
 193   0.0000       0.451109        12.2753 
 194   0.0000       0.460678        12.5357 
 195   0.0000       0.461210        12.5502 
 196   0.0000       0.467297        12.7158 
 197   0.0000       0.470841        12.8122 
 198   0.0000       0.472069        12.8456 
 199   0.0000       0.472902        12.8683 
 200   0.0000       0.482361        13.1257 
 201   0.0000       0.483197        13.1484 
 202   0.0000       0.498682        13.5698 
 203   0.0000       0.507875        13.8200 
 204   0.0000       0.509510        13.8645 
 205   0.0000       0.510945        13.9035 
 206   0.0000       0.515401        14.0248 
 207   0.0000       0.516908        14.0658 
 208   0.0000       0.527395        14.3511 
 209   0.0000       0.534534        14.5454 
 210   0.0000       0.536039        14.5864 
 211   0.0000       0.537690        14.6313 
 212   0.0000       0.541838        14.7442 
 213   0.0000       0.546716        14.8769 
 214   0.0000       0.548323        14.9206 
 215   0.0000       0.551193        14.9987 
 216   0.0000       0.558284        15.1917 
 217   0.0000       0.558673        15.2023 
 218   0.0000       0.559334        15.2203 
 219   0.0000       0.575390        15.6572 
 220   0.0000       0.579311        15.7639 
 221   0.0000       0.581090        15.8123 
 222   0.0000       0.590182        16.0597 
 223   0.0000       0.591138        16.0857 
 224   0.0000       0.600343        16.3362 
 225   0.0000       0.603035        16.4094 
 226   0.0000       0.604771        16.4567 
 227   0.0000       0.608024        16.5452 
 228   0.0000       0.616030        16.7630 
 229   0.0000       0.618391        16.8273 
 230   0.0000       0.619348        16.8533 
 231   0.0000       0.619993        16.8709 
 232   0.0000       0.621821        16.9206 
 233   0.0000       0.623449        16.9649 
 234   0.0000       0.624545        16.9947 
 235   0.0000       0.625120        17.0104 
 236   0.0000       0.634193        17.2573 
 237   0.0000       0.644684        17.5428 
 238   0.0000       0.645036        17.5523 
 239   0.0000       0.646891        17.6028 
 240   0.0000       0.657652        17.8956 
 241   0.0000       0.658227        17.9113 
 242   0.0000       0.664343        18.0777 
 243   0.0000       0.679070        18.4784 
 244   0.0000       0.697193        18.9716 
 245   0.0000       0.698962        19.0197 
 246   0.0000       0.702596        19.1186 
 247   0.0000       0.703573        19.1452 
 248   0.0000       0.708577        19.2814 
 249   0.0000       0.713961        19.4279 
 250   0.0000       0.714137        19.4327 
 251   0.0000       0.714574        19.4445 
 252   0.0000       0.730297        19.8724 
 253   0.0000       0.736011        20.0279 
 254   0.0000       0.737477        20.0678 
 255   0.0000       0.737835        20.0775 
 256   0.0000       0.744197        20.2506 
 257   0.0000       0.746569        20.3152 
 258   0.0000       0.758532        20.6407 
 259   0.0000       0.758823        20.6486 
 260   0.0000       0.761167        20.7124 
 261   0.0000       0.761289        20.7157 
 262   0.0000       0.762120        20.7383 
 263   0.0000       0.779552        21.2127 
 264   0.0000       0.812136        22.0994 
 265   0.0000       0.828607        22.5476 
 266   0.0000       0.852780        23.2053 
 267   0.0000       0.853066        23.2131 
 268   0.0000       0.857020        23.3207 
 269   0.0000       0.857563        23.3355 
 270   0.0000       0.896231        24.3877 
 271   0.0000       0.898702        24.4549 
 272   0.0000       0.906395        24.6643 
 273   0.0000       0.907828        24.7033 
 274   0.0000       0.916291        24.9335 
 275   0.0000       0.923247        25.1228 
 276   0.0000       0.924395        25.1541 
 277   0.0000       0.942522        25.6473 
 278   0.0000       0.950850        25.8739 
 279   0.0000       0.951834        25.9007 
 280   0.0000       0.956298        26.0222 
 281   0.0000       0.957562        26.0566 
 282   0.0000       0.959052        26.0971 
 283   0.0000       0.961686        26.1688 
 284   0.0000       0.964453        26.2441 
 285   0.0000       0.965604        26.2754 
 286   0.0000       0.984528        26.7904 
 287   0.0000       1.007706        27.4211 
 288   0.0000       1.010722        27.5031 
 289   0.0000       1.011533        27.5252 
 290   0.0000       1.016033        27.6477 
 291   0.0000       1.017334        27.6831 
 292   0.0000       1.018084        27.7035 
 293   0.0000       1.030160        28.0321 
 294   0.0000       1.030443        28.0398 
 295   0.0000       1.039761        28.2933 
 296   0.0000       1.040462        28.3124 
 297   0.0000       1.041599        28.3434 
 298   0.0000       1.046329        28.4721 
 299   0.0000       1.046904        28.4877 
 300   0.0000       1.054620        28.6977 
 301   0.0000       1.060278        28.8516 
 302   0.0000       1.060851        28.8672 
 303   0.0000       1.061273        28.8787 
 304   0.0000       1.067059        29.0362 
 305   0.0000       1.067442        29.0466 
 306   0.0000       1.070676        29.1346 
 307   0.0000       1.088486        29.6192 
 308   0.0000       1.095033        29.7974 
 309   0.0000       1.096862        29.8471 
 310   0.0000       1.125156        30.6171 
 311   0.0000       1.131200        30.7815 
 312   0.0000       1.131594        30.7922 
 313   0.0000       1.132492        30.8167 
 314   0.0000       1.135356        30.8946 
 315   0.0000       1.136055        30.9136 
 316   0.0000       1.140138        31.0247 
 317   0.0000       1.141368        31.0582 
 318   0.0000       1.141811        31.0703 
 319   0.0000       1.146409        31.1954 
 320   0.0000       1.147616        31.2282 
 321   0.0000       1.148768        31.2596 
 322   0.0000       1.149162        31.2703 
 323   0.0000       1.153273        31.3822 
 324   0.0000       1.153863        31.3982 
 325   0.0000       1.154717        31.4215 
 326   0.0000       1.155452        31.4415 
 327   0.0000       1.160787        31.5866 
 328   0.0000       1.161149        31.5965 
 329   0.0000       1.170393        31.8480 
 330   0.0000       1.204114        32.7656 
 331   0.0000       1.205164        32.7942 
 332   0.0000       1.205373        32.7999 
 333   0.0000       1.206464        32.8296 
 334   0.0000       1.209022        32.8992 
 335   0.0000       1.209334        32.9076 
 336   0.0000       1.214181        33.0395 
 337   0.0000       1.214895        33.0590 
 338   0.0000       1.215494        33.0753 
 339   0.0000       1.216431        33.1008 
 340   0.0000       1.233462        33.5642 
 341   0.0000       1.233770        33.5726 
 342   0.0000       1.249613        34.0037 
 343   0.0000       1.270607        34.5750 
 344   0.0000       1.279522        34.8176 
 345   0.0000       1.279876        34.8272 
 346   0.0000       1.282406        34.8960 
 347   0.0000       1.290425        35.1142 
 348   0.0000       1.294050        35.2129 
 349   0.0000       1.295178        35.2436 
 350   0.0000       1.307029        35.5661 
 351   0.0000       1.308544        35.6073 
 352   0.0000       1.313562        35.7438 
 353   0.0000       1.327818        36.1318 
 354   0.0000       1.330431        36.2029 
 355   0.0000       1.331285        36.2261 
 356   0.0000       1.368323        37.2340 
 357   0.0000       1.368635        37.2424 
 358   0.0000       1.381957        37.6050 
 359   0.0000       1.384753        37.6810 
 360   0.0000       1.385501        37.7014 
 361   0.0000       1.402935        38.1758 
 362   0.0000       1.403781        38.1988 
 363   0.0000       1.405094        38.2346 
 364   0.0000       1.412042        38.4236 
 365   0.0000       1.428880        38.8818 
 366   0.0000       1.429638        38.9024 
 367   0.0000       1.438054        39.1314 
 368   0.0000       1.440563        39.1997 
 369   0.0000       1.440900        39.2089 
 370   0.0000       1.455043        39.5937 
 371   0.0000       1.455855        39.6158 
 372   0.0000       1.464273        39.8449 
 373   0.0000       1.485157        40.4132 
 374   0.0000       1.487180        40.4682 
 375   0.0000       1.487472        40.4762 
 376   0.0000       1.496626        40.7253 
 377   0.0000       1.497452        40.7477 
 378   0.0000       1.498346        40.7721 
 379   0.0000       1.505634        40.9704 
 380   0.0000       1.507157        41.0118 
 381   0.0000       1.508177        41.0396 
 382   0.0000       1.511664        41.1345 
 383   0.0000       1.518053        41.3083 
 384   0.0000       1.519008        41.3343 
 385   0.0000       1.530784        41.6547 
 386   0.0000       1.532796        41.7095 
 387   0.0000       1.533333        41.7241 
 388   0.0000       1.539695        41.8972 
 389   0.0000       1.540421        41.9170 
 390   0.0000       1.541067        41.9346 
 391   0.0000       1.553839        42.2821 
 392   0.0000       1.565074        42.5878 
 393   0.0000       1.565433        42.5976 
 394   0.0000       1.566344        42.6224 
 395   0.0000       1.571419        42.7605 
 396   0.0000       1.572047        42.7776 
 397   0.0000       1.583355        43.0853 
 398   0.0000       1.598592        43.4999 
 399   0.0000       1.598910        43.5086 
 400   0.0000       1.611824        43.8600 
 401   0.0000       1.615532        43.9609 
 402   0.0000       1.616367        43.9836 
 403   0.0000       1.621146        44.1136 
 404   0.0000       1.641914        44.6787 
 405   0.0000       1.645405        44.7738 
 406   0.0000       1.650880        44.9227 
 407   0.0000       1.651677        44.9444 
 408   0.0000       1.662455        45.2377 
 409   0.0000       1.662681        45.2439 
 410   0.0000       1.668419        45.4000 
 411   0.0000       1.668674        45.4069 
 412   0.0000       1.686224        45.8845 
 413   0.0000       1.686540        45.8931 
 414   0.0000       1.687950        45.9315 
 415   0.0000       1.688130        45.9364 
 416   0.0000       1.688304        45.9411 
 417   0.0000       1.708042        46.4782 
 418   0.0000       1.731457        47.1153 
 419   0.0000       1.731850        47.1260 
 420   0.0000       1.736069        47.2408 
 421   0.0000       1.744445        47.4688 
 422   0.0000       1.745159        47.4882 
 423   0.0000       1.749982        47.6194 
 424   0.0000       1.752404        47.6853 
 425   0.0000       1.753265        47.7088 
 426   0.0000       1.763266        47.9809 
 427   0.0000       1.763561        47.9889 
 428   0.0000       1.781138        48.4672 
 429   0.0000       1.801199        49.0131 
 430   0.0000       1.801920        49.0327 
 431   0.0000       1.806922        49.1689 
 432   0.0000       1.806956        49.1698 
 433   0.0000       1.812272        49.3144 
 434   0.0000       1.812738        49.3271 
 435   0.0000       1.819437        49.5094 
 436   0.0000       1.819697        49.5165 
 437   0.0000       1.825376        49.6710 
 438   0.0000       1.832390        49.8619 
 439   0.0000       1.832818        49.8735 
 440   0.0000       1.835616        49.9496 
 441   0.0000       1.840416        50.0803 
 442   0.0000       1.841178        50.1010 
 443   0.0000       1.851213        50.3741 
 444   0.0000       1.855821        50.4995 
 445   0.0000       1.855942        50.5027 
 446   0.0000       1.857479        50.5446 
 447   0.0000       1.858375        50.5689 
 448   0.0000       1.858708        50.5780 
 449   0.0000       1.870164        50.8898 
 450   0.0000       1.905633        51.8549 
 451   0.0000       1.906131        51.8685 
 452   0.0000       1.907254        51.8990 
 453   0.0000       1.926087        52.4115 
 454   0.0000       1.930817        52.5402 
 455   0.0000       1.933116        52.6028 
 456   0.0000       1.939655        52.7807 
 457   0.0000       1.939955        52.7889 
 458   0.0000       1.943891        52.8960 
 459   0.0000       1.944433        52.9107 
 460   0.0000       1.950868        53.0858 
 461   0.0000       1.951172        53.0941 
 462   0.0000       1.967244        53.5314 
 463   0.0000       1.969419        53.5906 
 464   0.0000       1.971255        53.6406 
 465   0.0000       1.971461        53.6462 
 466   0.0000       1.993189        54.2374 
 467   0.0000       1.997356        54.3508 
 468   0.0000       1.997506        54.3549 
 469   0.0000       2.007312        54.6217 
 470   0.0000       2.007397        54.6241 
 471   0.0000       2.015357        54.8407 
 472   0.0000       2.017115        54.8885 
 473   0.0000       2.017633        54.9026 
 474   0.0000       2.024062        55.0775 
 475   0.0000       2.032731        55.3134 
 476   0.0000       2.033174        55.3255 
 477   0.0000       2.039672        55.5023 
 478   0.0000       2.040168        55.5158 
 479   0.0000       2.043476        55.6058 
 480   0.0000       2.052806        55.8597 
 481   0.0000       2.053188        55.8701 
 482   0.0000       2.069175        56.3051 
 483   0.0000       2.081903        56.6515 
 484   0.0000       2.084804        56.7304 
 485   0.0000       2.086840        56.7858 
 486   0.0000       2.087293        56.7981 
 487   0.0000       2.105868        57.3036 
 488   0.0000       2.105976        57.3065 
 489   0.0000       2.110574        57.4316 
 490   0.0000       2.118616        57.6505 
 491   0.0000       2.118855        57.6570 
 492   0.0000       2.124638        57.8144 
 493   0.0000       2.126186        57.8565 
 494   0.0000       2.126343        57.8607 
 495   0.0000       2.151223        58.5377 
 496   0.0000       2.162976        58.8576 
 497   0.0000       2.179083        59.2959 
 498   0.0000       2.179507        59.3074 
 499   0.0000       2.193431        59.6863 
 500   0.0000       2.209553        60.1250 
 501   0.0000       2.213393        60.2295 
 502   0.0000       2.213872        60.2425 
 503   0.0000       2.224057        60.5197 
 504   0.0000       2.224902        60.5427 
 505   0.0000       2.225023        60.5460 
 506   0.0000       2.229475        60.6671 
 507   0.0000       2.229703        60.6733 
 508   0.0000       2.250533        61.2401 
 509   0.0000       2.250667        61.2438 
 510   0.0000       2.274531        61.8931 
 511   0.0000       2.275040        61.9070 
 512   0.0000       2.290768        62.3350 
 513   0.0000       2.296270        62.4847 
 514   0.0000       2.307760        62.7974 
 515   0.0000       2.308007        62.8041 
 516   0.0000       2.314322        62.9759 
 517   0.0000       2.326547        63.3086 
 518   0.0000       2.347973        63.8916 
 519   0.0000       2.348167        63.8969 
 520   0.0000       2.358982        64.1912 
 521   0.0000       2.359512        64.2056 
 522   0.0000       2.359691        64.2105 
 523   0.0000       2.395375        65.1815 
 524   0.0000       2.395766        65.1921 
 525   0.0000       2.417924        65.7951 
 526   0.0000       2.423826        65.9557 
 527   0.0000       2.424058        65.9620 
 528   0.0000       2.426559        66.0300 
 529   0.0000       2.435574        66.2753 
 530   0.0000       2.436008        66.2871 
 531   0.0000       2.446347        66.5685 
 532   0.0000       2.456697        66.8501 
 533   0.0000       2.457132        66.8620 
 534   0.0000       2.468117        67.1609 
 535   0.0000       2.468605        67.1742 
 536   0.0000       2.474165        67.3254 
 537   0.0000       2.479536        67.4716 
 538   0.0000       2.511394        68.3385 
 539   0.0000       2.511920        68.3528 
 540   0.0000       2.522461        68.6396 
 541   0.0000       2.550380        69.3994 
 542   0.0000       2.564812        69.7921 
 543   0.0000       2.565351        69.8068 
 544   0.0000       2.584277        70.3217 
 545   0.0000       2.588239        70.4296 
 546   0.0000       2.600088        70.7520 
 547   0.0000       2.600316        70.7582 
 548   0.0000       2.616770        71.2059 
 549   0.0000       2.617398        71.2230 
 550   0.0000       2.633013        71.6479 
 551   0.0000       2.633313        71.6561 
 552   0.0000       2.633461        71.6601 
 553   0.0000       2.671609        72.6982 
 554   0.0000       2.682829        73.0035 
 555   0.0000       2.694593        73.3236 
 556   0.0000       2.695076        73.3367 
 557   0.0000       2.739700        74.5510 
 558   0.0000       2.745335        74.7044 
 559   0.0000       2.747911        74.7745 
[...]
 521( 0) :     2.359515 a.u.    64.206 eV
 522( 0) :     2.359692 a.u.    64.210 eV
 523( 0) :     2.395373 a.u.    65.181 eV
 524( 0) :     2.395769 a.u.    65.192 eV
 525( 0) :     2.417926 a.u.    65.795 eV
 526( 0) :     2.423828 a.u.    65.956 eV
 527( 0) :     2.424060 a.u.    65.962 eV
 528( 0) :     2.426564 a.u.    66.030 eV
 529( 0) :     2.435575 a.u.    66.275 eV
 530( 0) :     2.436009 a.u.    66.287 eV
 531( 0) :     2.446348 a.u.    66.569 eV
 532( 0) :     2.456700 a.u.    66.850 eV
 533( 0) :     2.457135 a.u.    66.862 eV
 534( 0) :     2.468119 a.u.    67.161 eV
 535( 0) :     2.468608 a.u.    67.174 eV
 536( 0) :     2.474168 a.u.    67.326 eV
 537( 0) :     2.479534 a.u.    67.472 eV
 538( 0) :     2.511396 a.u.    68.339 eV
 539( 0) :     2.511921 a.u.    68.353 eV
 540( 0) :     2.522460 a.u.    68.640 eV
 541( 0) :     2.550383 a.u.    69.399 eV
 542( 0) :     2.564812 a.u.    69.792 eV
 543( 0) :     2.565349 a.u.    69.807 eV
 544( 0) :     2.584281 a.u.    70.322 eV
 545( 0) :     2.588232 a.u.    70.429 eV
 546( 0) :     2.600089 a.u.    70.752 eV
 547( 0) :     2.600315 a.u.    70.758 eV
 548( 0) :     2.616768 a.u.    71.206 eV
 549( 0) :     2.617396 a.u.    71.223 eV
 550( 0) :     2.633013 a.u.    71.648 eV
 551( 0) :     2.633312 a.u.    71.656 eV
 552( 0) :     2.633463 a.u.    71.660 eV
 553( 0) :     2.671609 a.u.    72.698 eV
 554( 0) :     2.682831 a.u.    73.004 eV
 555( 0) :     2.694594 a.u.    73.324 eV
 556( 0) :     2.695075 a.u.    73.337 eV
 557( 0) :     2.739704 a.u.    74.551 eV
 558( 0) :     2.745337 a.u.    74.704 eV
 559( 0) :     2.747914 a.u.    74.775 eV
 560( 0) :     2.748025 a.u.    74.778 eV
 561( 0) :     2.757892 a.u.    75.046 eV
 562( 0) :     2.758173 a.u.    75.054 eV
 563( 0) :     2.768251 a.u.    75.328 eV
 564( 0) :     2.768552 a.u.    75.336 eV
 565( 0) :     2.777354 a.u.    75.576 eV
 566( 0) :     2.785235 a.u.    75.790 eV
 567( 0) :     2.785462 a.u.    75.796 eV
 568( 0) :     2.791219 a.u.    75.953 eV
 569( 0) :     2.795942 a.u.    76.081 eV
 570( 0) :     2.796438 a.u.    76.095 eV
 571( 0) :     2.798540 a.u.    76.152 eV
 572( 0) :     2.818616 a.u.    76.698 eV
 573( 0) :     2.819812 a.u.    76.731 eV
 574( 0) :     2.856906 a.u.    77.740 eV
 575( 0) :     2.859603 a.u.    77.814 eV
 576( 0) :     2.860383 a.u.    77.835 eV
 577( 0) :     2.875772 a.u.    78.254 eV
 578( 0) :     2.875948 a.u.    78.259 eV
 579( 0) :     2.910707 a.u.    79.204 eV
 580( 0) :     2.911271 a.u.    79.220 eV
 581( 0) :     2.922642 a.u.    79.529 eV
 582( 0) :     2.923018 a.u.    79.539 eV
 583( 0) :     2.925133 a.u.    79.597 eV
 584( 0) :     2.934262 a.u.    79.845 eV
 585( 0) :     2.962961 a.u.    80.626 eV
 586( 0) :     2.964142 a.u.    80.658 eV
 587( 0) :     2.975481 a.u.    80.967 eV
 588( 0) :     2.986501 a.u.    81.267 eV
 589( 0) :     2.986950 a.u.    81.279 eV
 590( 0) :     3.062964 a.u.    83.347 eV
 591( 0) :     3.063648 a.u.    83.366 eV
 592( 0) :     3.067189 a.u.    83.462 eV
 593( 0) :     3.140878 a.u.    85.468 eV
 594( 0) :     3.800117 a.u.   103.406 eV
 595( 0) :     3.805284 a.u.   103.547 eV
 596( 0) :     3.835307 a.u.   104.364 eV
 597( 0) :     3.850266 a.u.   104.771 eV
 598( 0) :     3.885744 a.u.   105.736 eV
 599( 0) :     3.886588 a.u.   105.759 eV
 600( 0) :     5.167374 a.u.   140.611 eV
 601( 0) :     5.167654 a.u.   140.619 eV
 602( 0) :     5.176430 a.u.   140.858 eV
 603( 0) :     5.181912 a.u.   141.007 eV
 604( 0) :     5.182462 a.u.   141.022 eV
 605( 0) :     5.184992 a.u.   141.091 eV
 606( 0) :     5.280448 a.u.   143.688 eV
 607( 0) :     5.280551 a.u.   143.691 eV
 608( 0) :     5.285611 a.u.   143.829 eV
 609( 0) :     5.287589 a.u.   143.883 eV
 610( 0) :     5.287610 a.u.   143.883 eV
 611( 0) :     5.289776 a.u.   143.942 eV
 612( 0) :     5.298307 a.u.   144.174 eV
 613( 0) :     5.298496 a.u.   144.179 eV
 614( 0) :     5.301107 a.u.   144.250 eV
 615( 0) :     5.318969 a.u.   144.737 eV
 616( 0) :     5.319315 a.u.   144.746 eV
 617( 0) :     5.338349 a.u.   145.264 eV
 618( 0) :     5.371402 a.u.   146.163 eV
 619( 0) :     5.372071 a.u.   146.181 eV
 620( 0) :     5.383345 a.u.   146.488 eV
 621( 0) :     5.399000 a.u.   146.914 eV
 622( 0) :     5.399662 a.u.   146.932 eV
 623( 0) :     5.402915 a.u.   147.021 eV
 624( 0) :     5.416852 a.u.   147.400 eV
 625( 0) :     5.455631 a.u.   148.455 eV
 626( 0) :     5.455965 a.u.   148.464 eV
 627( 0) :     5.456384 a.u.   148.476 eV
 628( 0) :     5.486371 a.u.   149.292 eV
 629( 0) :     5.487190 a.u.   149.314 eV
 630( 0) :     5.487569 a.u.   149.324 eV
 631( 0) :     5.506860 a.u.   149.849 eV
 632( 0) :     5.520202 a.u.   150.212 eV
 633( 0) :     5.521183 a.u.   150.239 eV
 634( 0) :     5.546011 a.u.   150.915 eV
 635( 0) :     5.546214 a.u.   150.920 eV
 636( 0) :     5.557358 a.u.   151.223 eV
 637( 0) :     5.584665 a.u.   151.966 eV
 638( 0) :     5.587431 a.u.   152.042 eV
 639( 0) :     5.587894 a.u.   152.054 eV
 640( 0) :     5.646565 a.u.   153.651 eV
 641( 0) :     5.647485 a.u.   153.676 eV
 642( 0) :     5.669308 a.u.   154.270 eV
 643( 0) :     5.729732 a.u.   155.914 eV
 644( 0) :     5.730357 a.u.   155.931 eV
 645( 0) :     5.745649 a.u.   156.347 eV
 646( 0) :     5.753297 a.u.   156.555 eV
 647( 0) :     5.758632 a.u.   156.700 eV
 648( 0) :     5.758993 a.u.   156.710 eV
 649( 0) :     5.839220 a.u.   158.893 eV
 650( 0) :     5.839285 a.u.   158.895 eV
 651( 0) :     5.894704 a.u.   160.403 eV
 652( 0) :     5.990098 a.u.   162.999 eV
 653( 0) :     5.990351 a.u.   163.006 eV
 654( 0) :     6.074661 a.u.   165.300 eV
 655( 0) :     6.075119 a.u.   165.312 eV
 656( 0) :     6.085341 a.u.   165.591 eV
 657( 0) :     6.096980 a.u.   165.907 eV
 658( 0) :     6.106925 a.u.   166.178 eV
 659( 0) :     6.107270 a.u.   166.187 eV
 660( 0) :     6.114712 a.u.   166.390 eV
 661( 0) :     6.115341 a.u.   166.407 eV
 662( 0) :     6.121986 a.u.   166.588 eV
 663( 0) :     7.460454 a.u.   203.009 eV
 664( 0) :    29.649974 a.u.   806.817 eV
 665( 0) :    29.717745 a.u.   808.661 eV
 666( 0) :    29.717926 a.u.   808.666 eV
 667( 0) :    29.782799 a.u.   810.431 eV
 668( 0) :    29.793277 a.u.   810.716 eV
 669( 0) :    29.793411 a.u.   810.720 eV
 670( 0) :    29.832367 a.u.   811.780 eV
 671( 0) :    30.009982 a.u.   816.613 eV
 672( 0) :    30.010394 a.u.   816.624 eV
 673( 0) :    30.019223 a.u.   816.865 eV
 674( 0) :    30.035455 a.u.   817.306 eV
 675( 0) :    30.041228 a.u.   817.463 eV
 676( 0) :    30.041336 a.u.   817.466 eV
 677( 0) :    30.108533 a.u.   819.295 eV
 678( 0) :    30.108653 a.u.   819.298 eV
 679( 0) :    30.148956 a.u.   820.395 eV
 680( 0) :    30.240224 a.u.   822.878 eV
 681( 0) :    30.240327 a.u.   822.881 eV
 682( 0) :    30.295798 a.u.   824.391 eV
 683( 0) :    30.295959 a.u.   824.395 eV
 684( 0) :    30.319252 a.u.   825.029 eV
 685( 0) :    30.321301 a.u.   825.085 eV
 686( 0) :    30.329334 a.u.   825.303 eV
 687( 0) :    30.329423 a.u.   825.306 eV
 688( 0) :    30.333857 a.u.   825.426 eV
 689( 0) :    30.338808 a.u.   825.561 eV
 690( 0) :    30.338993 a.u.   825.566 eV
 691( 0) :    36.673670 a.u.   997.941 eV
 692( 0) :    36.681686 a.u.   998.159 eV
 693( 0) :    36.682026 a.u.   998.169 eV
 694( 0) :    36.764098 a.u.  1000.402 eV
 695( 0) :    36.766097 a.u.  1000.456 eV
 696( 0) :    36.774623 a.u.  1000.688 eV
 697( 0) :    36.863017 a.u.  1003.094 eV
 698( 0) :    36.878808 a.u.  1003.523 eV
 699( 0) :    36.878989 a.u.  1003.528 eV
 700( 0) :    36.893353 a.u.  1003.919 eV
 701( 0) :    36.893405 a.u.  1003.921 eV
 702( 0) :    36.893495 a.u.  1003.923 eV
 703( 0) :    36.894569 a.u.  1003.952 eV
 704( 0) :    36.905628 a.u.  1004.253 eV
 705( 0) :    36.905819 a.u.  1004.258 eV
 706( 0) :    36.909024 a.u.  1004.346 eV
 707( 0) :    36.909232 a.u.  1004.351 eV
 708( 0) :    36.939153 a.u.  1005.165 eV
 709( 0) :    36.962163 a.u.  1005.792 eV
 710( 0) :    36.962201 a.u.  1005.793 eV
 711( 0) :    36.978873 a.u.  1006.246 eV
 712( 0) :    36.987486 a.u.  1006.481 eV
 713( 0) :    37.012414 a.u.  1007.159 eV
 714( 0) :    37.012909 a.u.  1007.172 eV
 715( 0) :    37.015758 a.u.  1007.250 eV
 716( 0) :    37.026747 a.u.  1007.549 eV
 717( 0) :    37.032253 a.u.  1007.699 eV
 718( 0) :    37.105380 a.u.  1009.689 eV
 719( 0) :    37.105754 a.u.  1009.699 eV
 720( 0) :    37.111730 a.u.  1009.862 eV
 721( 0) :    37.245746 a.u.  1013.508 eV
 722( 0) :    37.253918 a.u.  1013.731 eV
 723( 0) :    37.269599 a.u.  1014.157 eV
 724( 0) :    37.358469 a.u.  1016.576 eV
 725( 0) :    37.370903 a.u.  1016.914 eV
 726( 0) :    37.371554 a.u.  1016.932 eV
 727( 0) :    41.163222 a.u.  1120.108 eV
-------
TIMINGS
-------

Total SCF time: 0 days 0 hours 1 min 8 sec 

Total time                  ....      68.940 sec
Sum of individual times     ....      65.422 sec  ( 94.9%)

Fock matrix formation       ....      42.275 sec  ( 61.3%)
  Split-RI-J                ....      25.156 sec  ( 59.5% of F)
  XC integration            ....      10.543 sec  ( 24.9% of F)
    Basis function eval.    ....       0.392 sec  (  3.7% of XC)
    Density eval.           ....       1.098 sec  ( 10.4% of XC)
    XC-Functional eval.     ....       0.170 sec  (  1.6% of XC)
    XC-Potential eval.      ....       1.384 sec  ( 13.1% of XC)
Diagonalization             ....       8.138 sec  ( 11.8%)
Density matrix formation    ....       0.612 sec  (  0.9%)
Population analysis         ....       4.390 sec  (  6.4%)
Initial guess               ....       0.790 sec  (  1.1%)
Orbital Transformation      ....       0.000 sec  (  0.0%)
Orbital Orthonormalization  ....       0.000 sec  (  0.0%)
DIIS solution               ....       5.963 sec  (  8.6%)
Grid generation             ....       3.255 sec  (  4.7%)

-------------------------   --------------------
FINAL SINGLE POINT ENERGY     -1103.167974351881
-------------------------   --------------------

   --->>> SOC part of D-tensor requested, so NeedSOC=true

                            ***************************************
                            *     ORCA property calculations      *
                            ***************************************

                                    ---------------------
                                    Active property flags
                                    ---------------------
   (+) Dipole Moment
   (+) D-tensor
   (+) Spin-Orbit Integrals are needed


------------------------------------------------------------------------------
                       ORCA ELECTRIC PROPERTIES CALCULATION
------------------------------------------------------------------------------

Dipole Moment Calculation                       ... on
Quadrupole Moment Calculation                   ... off
Polarizability Calculation                      ... off
GBWName                                         ... zfs.gbw
Electron density file                           ... zfs.scfp
The origin for moment calculation is the CENTER OF MASS  = ( 0.000035, -0.000042 -3.167486)

-------------
DIPOLE MOMENT
-------------
                                X             Y             Z
Electronic contribution:     -0.00727      -0.00497       1.06682
Nuclear contribution   :     -0.00212       0.00317      -0.32886
                        -----------------------------------------
Total Dipole Moment    :     -0.00939      -0.00181       0.73796
                        -----------------------------------------
Magnitude (a.u.)       :      0.73802
Magnitude (Debye)      :      1.87589



--------------------
Rotational spectrum 
--------------------
 
Rotational constants in cm-1:     0.009246     0.009141     0.009141 
Rotational constants in MHz :   277.183097   274.048600   274.045280 

 Dipole components along the rotational axes: 
x,y,z [a.u.] :     0.737960     0.003740     0.008543 
x,y,z [Debye]:     1.875745     0.009506     0.021714 

 


           ************************************************************
           *        Program running with 72 parallel MPI-processes    *
           *              working on a shared directory               *
           ************************************************************
------------------------------------------------------------------------------
                         ORCA SPIN-ORBIT COUPLING CALCULATION
------------------------------------------------------------------------------

GBW file                                    ... zfs.gbw
Input density                               ... zfs.scfp
Output integrals                            ... zfs
Operator type                               ... Mean-field/Effective potential
   One-Electron Terms                       ... 1
   Coulomb Contribution                     ... 2
   Exchange Contribution                    ... 3
   Correlation Contribution                 ... 0
   Maximum number of centers                ... 4
Setting up the integration grid             ... done
Evaluating density on the grid              ... (NumEl=  205.996018) done
Evaluating Coulomb term semi-analytically   ... done
One-Center Exchange (+SOO)                  ... done
Evaluating the spin-orbit operator          ... done
Total time for SOC: 64.308


           ************************************************************
           *        Program running with 72 parallel MPI-processes    *
           *              working on a shared directory               *
           ************************************************************
------------------------------------------------------------------------------
                                ORCA EPR/NMR CALCULATION
------------------------------------------------------------------------------

GBWName                      ... zfs.gbw
Electron density file        ... zfs.scfp
Spin density file            ... zfs.scfr
Spin-orbit integrals         ... zfs
Multiplicity                 ... 3
g-tensor                     ... 0
NMR chemical shifts          ... 0
D-tensor                     ... spin-spin and spin-orbit
D(SS)-algorithm              ... spin-density from UNOs
D(SOC)-algorithm             ... CP (=Coupled-perturbed)
Active orbitals for UNO spin density= 102 .. 103

Starting the spin-spin zero-field-splitting computation (UNO)...
                        ... done with spin-spin calculation

Starting the spin-orbit zero-field-splitting computation (CP)...
Transforming integrals                       ... Max(Pert)=   5.6137e-06
Warning: Perturbation too small - adjusting
Transforming integrals                       ... Max(Pert)=   6.1133e-05
Warning: Perturbation too small - adjusting
Transforming integrals                       ... Max(Pert)=   6.6574e-04
Warning: Perturbation too small - adjusting
Transforming integrals                       ... Max(Pert)=   7.2499e-03
done
    ... no HF exchange - skipping linear equations
ZFS-Tensor - using the prefactors
   -1/(4S**2) for same spin
    1/(2*S*(2*S-1)) for alpha->beta
    1/((S+1)*(2*S+1)) for beta->alpha
                        ... done with spin-orbit calculation

---------------------------
ZERO-FIELD-SPLITTING TENSOR
---------------------------

raw-matrix : 
   0.019976    -0.000198     0.000017  
  -0.000198     0.019884     0.000011  
   0.000017     0.000011     0.087172  

Tensor is right-handed
diagonalized D matrix : 
   0.019727     0.020134     0.087172  

   0.622427     0.782678    -0.000247  
   0.782678    -0.622427    -0.000170  
  -0.000286    -0.000088    -1.000000  


Direction X=1 Y=0 Z=2
D   =     0.067242  cm**-1
E/D =     0.003028

SPIN-SPIN-PART
                   0          1          2    
      0      -0.021868  -0.000197   0.000015
      1      -0.000197  -0.021945  -0.000003
      2       0.000015  -0.000003   0.043813
Exchange and Coulomb parts of SS (raw)
Coulomb
                   0          1          2    
      0      -0.011261  -0.000330  -0.000037
      1      -0.000330  -0.020975  -0.000031
      2      -0.000037  -0.000031   0.032236
Exchange
                   0          1          2    
      0      -0.010607   0.000134   0.000052
      1       0.000134  -0.000970   0.000028
      2       0.000052   0.000028   0.011576
One-, two-, three- and four-center SS contributions (raw)
One-Center            (AA|AA):
                   0          1          2    
      0      -0.001428   0.000072  -0.000084
      1       0.000072  -0.001600   0.000056
      2      -0.000084   0.000056   0.003029
Two-Center-Coulomb    (AA|BB):
                   0          1          2    
      0      -0.382078   0.034832   0.004315
      1       0.034832  -0.313957   0.001647
      2       0.004315   0.001647   0.696035
Two-Center-Exchange   (AB|BA):
                   0          1          2    
      0      -0.015344  -0.000840  -0.000245
      1      -0.000840  -0.013748  -0.000492
      2      -0.000245  -0.000492   0.029093
Two-Center-hybrid     (AA|AB):
                   0          1          2    
      0       0.001959  -0.000362   0.000827
      1      -0.000362   0.000946  -0.000193
      2       0.000827  -0.000193  -0.002905
Three-Center-Coulomb  (AA|BC):
                   0          1          2    
      0       0.659081  -0.061420  -0.006259
      1      -0.061420   0.534897  -0.006131
      2      -0.006259  -0.006131  -1.193978
Three-Center-Exchange (AB|AC):
                   0          1          2    
      0      -0.003379  -0.000063  -0.000976
      1      -0.000063  -0.005055   0.001757
      2      -0.000976   0.001757   0.008434
Four-Center           (AB|CD):
                   0          1          2    
      0      -0.280678   0.027583   0.002437
      1       0.027583  -0.223427   0.003352
      2       0.002437   0.003352   0.504106
ALPHA-PART
                   0          1          2    
      0      -0.113517  -0.000004  -0.000006
      1      -0.000004  -0.113509  -0.000003
      2      -0.000006  -0.000003  -0.108849
BETA-PART
                   0          1          2    
      0      -0.111420  -0.000009  -0.000017
      1      -0.000009  -0.111419  -0.000005
      2      -0.000017  -0.000005  -0.104877
ALPHA->BETA-PART
                   0          1          2    
      0       0.230168   0.000008   0.000020
      1       0.000008   0.230142   0.000023
      2       0.000020   0.000023   0.222867
BETA->ALPHA-PART
                   0          1          2    
      0       0.036614   0.000003   0.000005
      1       0.000003   0.036615  -0.000000
      2       0.000005  -0.000000   0.034218

Individual contributions (in cm**-1)
                                   D         E
SPIN-SPIN                  :   0.06572    0.00020
  Exchange vs Coulomb
  Coulomb                  :   0.04835    0.00142
  Exchange                 :   0.01736   -0.00122
  One through four center contributions:
  1-center                 :   0.00454   -0.00005
  2-center-Coulomb         :   1.04406   -0.04161
  2-center-Exchange        :   0.04364    0.00064
  2-center-Hybrid          :  -0.00436    0.00047
  3-center-Coulomb         :  -1.79097    0.07382
  3-center-Exchange        :   0.01265    0.00025
  4-center                 :   0.75616   -0.03332
SPIN-ORBIT                 :   0.00152    0.00000
SOMO->VMO  (alpha->alpha)  :   0.00466    0.00000
DOMO->SOMO (beta ->beta )  :   0.00654    0.00001
SOMO->SOMO (alpha->beta )  :  -0.00729   -0.00001
DOMO->VMO  (beta ->alpha)  :  -0.00240   -0.00000


Timings for individual modules:

Sum of individual times         ...      266.247 sec (=   4.437 min)
GTO integral calculation        ...       16.026 sec (=   0.267 min)   6.0 %
Spin-Orbit-Coupling Matrices    ...       64.297 sec (=   1.072 min)  24.1 %
SCF iterations                  ...       75.935 sec (=   1.266 min)  28.5 %
EPR/NMR calculation             ...      109.990 sec (=   1.833 min)  41.3 %
                             ****ORCA TERMINATED NORMALLY****
TOTAL RUN TIME: 0 days 0 hours 4 minutes 40 seconds 688 msec
