
                                 *****************
                                 * O   R   C   A *
                                 *****************

           --- An Ab Initio, DFT and Semiempirical electronic structure package ---

                  #######################################################
                  #                        -***-                        #
                  #          Department of theory and spectroscopy      #
                  #               Directorship: Frank Neese             #
                  #        Max Planck Institute fuer Kohlenforschung    #
                  #                Kaiser Wilhelm Platz 1               #
                  #                 D-45470 Muelheim/Ruhr               #
                  #                      Germany                        #
                  #                                                     #
                  #                  All rights reserved                #
                  #                        -***-                        #
                  #######################################################


                         Program Version 4.2.1 -  RELEASE  -


 With contributions from (in alphabetic order):
   Daniel Aravena         : Magnetic Suceptibility
   Michael Atanasov       : Ab Initio Ligand Field Theory (pilot matlab implementation)
   Alexander A. Auer      : GIAO ZORA, VPT2
   Ute Becker             : Parallelization
   Giovanni Bistoni       : ED, misc. LED, open-shell LED, HFLD
   Martin Brehm           : Molecular dynamics
   Dmytro Bykov           : SCF Hessian
   Vijay G. Chilkuri      : MRCI spin determinant printing, contributions to CSF-ICE
   Dipayan Datta          : RHF DLPNO-CCSD density
   Achintya Kumar Dutta   : EOM-CC, STEOM-CC
   Dmitry Ganyushin       : Spin-Orbit,Spin-Spin,Magnetic field MRCI
   Miquel Garcia          : C-PCM Hessian, Gaussian charge scheme
   Yang Guo               : DLPNO-NEVPT2, CIM, IAO-localization
   Andreas Hansen         : Spin unrestricted coupled pair/coupled cluster methods
   Benjamin Helmich-Paris : CASSCF linear response (MC-RPA)
   Lee Huntington         : MR-EOM, pCC
   Robert Izsak           : Overlap fitted RIJCOSX, COSX-SCS-MP3, EOM
   Christian Kollmar      : KDIIS, OOCD, Brueckner-CCSD(T), CCSD density
   Simone Kossmann        : Meta GGA functionals, TD-DFT gradient, OOMP2, MP2 Hessian
   Martin Krupicka        : AUTO-CI
   Lucas Lang             : DCDCAS
   Dagmar Lenk            : GEPOL surface, SMD
   Dimitrios Liakos       : Extrapolation schemes; Compound Job, initial MDCI parallelization
   Dimitrios Manganas     : Further ROCIS development; embedding schemes
   Dimitrios Pantazis     : SARC Basis sets
   Taras Petrenko         : DFT Hessian,TD-DFT gradient, ASA, ECA, R-Raman, ABS, FL, XAS/XES, NRVS
   Peter Pinski           : DLPNO-MP2, DLPNO-MP2 Gradient
   Christoph Reimann      : Effective Core Potentials
   Marius Retegan         : Local ZFS, SOC
   Christoph Riplinger    : Optimizer, TS searches, QM/MM, DLPNO-CCSD(T), (RO)-DLPNO pert. Triples
   Tobias Risthaus        : Range-separated hybrids, TD-DFT gradient, RPA, STAB
   Michael Roemelt        : Original ROCIS implementation
   Masaaki Saitow         : Open-shell DLPNO-CCSD energy and density
   Barbara Sandhoefer     : DKH picture change effects
   Avijit Sen             : IP-ROCIS
   Kantharuban Sivalingam : CASSCF convergence, NEVPT2, FIC-MRCI
   Bernardo de Souza      : ESD, SOC TD-DFT
   Georgi Stoychev        : AutoAux, RI-MP2 NMR
   Willem Van den Heuvel  : Paramagnetic NMR
   Boris Wezisla          : Elementary symmetry handling
   Frank Wennmohs         : Technical directorship


 We gratefully acknowledge several colleagues who have allowed us to
 interface, adapt or use parts of their codes:
   Stefan Grimme, W. Hujo, H. Kruse,             : VdW corrections, initial TS optimization,
                  C. Bannwarth                     DFT functionals, gCP, sTDA/sTD-DF
   Ed Valeev, F. Pavosevic, A. Kumar             : LibInt (2-el integral package), F12 methods
   Garnet Chan, S. Sharma, J. Yang, R. Olivares  : DMRG
   Ulf Ekstrom                                   : XCFun DFT Library
   Mihaly Kallay                                 : mrcc  (arbitrary order and MRCC methods)
   Andreas Klamt, Michael Diedenhofen            : otool_cosmo (COSMO solvation model)
   Jiri Pittner, Ondrej Demel                    : Mk-CCSD
   Frank Weinhold                                : gennbo (NPA and NBO analysis)
   Christopher J. Cramer and Donald G. Truhlar   : smd solvation model
   Lars Goerigk                                  : TD-DFT with DH, B97 family of functionals
   V. Asgeirsson, H. Jonsson                     : NEB implementation
   FAccTs GmbH                                   : IRC, NEB, NEB-TS, Multilevel, MM, QM/MM, CI optimization
   S Lehtola, MJT Oliveira, MAL Marques          : LibXC Library


 Your calculation uses the libint2 library for the computation of 2-el integrals
 For citations please refer to: http://libint.valeyev.net

 Your ORCA version has been built with support for libXC version: 4.2.3
 For citations please refer to: https://tddft.org/programs/libxc/

 This ORCA versions uses:
   CBLAS   interface :  Fast vector & matrix operations
   LAPACKE interface :  Fast linear algebra routines
   SCALAPACK package :  Parallel linear algebra routines




***************************************
The coordinates will be read from file: nv.xyz
***************************************


----- Orbital basis set information -----
Your calculation utilizes the basis: EPR-II
   V. Barone, in Recent Advances in Density Functional Methods, Part 1 (ed. D. P. Chong), World Scientific, Singapore, 1995, p. 287.

----- AuxJ basis set information -----
Your calculation utilizes the AutoAux generation procedure.
  G. L. Stoychev, A. A. Auer, F. Neese, J. Chem. Theory Comput. 13, 554 (2017)

----- AuxC basis set information -----
Your calculation utilizes the AutoAux generation procedure.
  G. L. Stoychev, A. A. Auer, F. Neese, J. Chem. Theory Comput. 13, 554 (2017)

----- AuxJK basis set information -----
Your calculation utilizes the AutoAux generation procedure.
  G. L. Stoychev, A. A. Auer, F. Neese, J. Chem. Theory Comput. 13, 554 (2017)

================================================================================
                                        WARNINGS
                       Please study these warnings very carefully!
================================================================================


WARNING: your system is open-shell and RHF/RKS was chosen
  ===> : WILL SWITCH to UHF/UKS


INFO   : the flag for use of LIBINT has been found!

================================================================================
                                       INPUT FILE
================================================================================
NAME = zfs.in
|  1> # Use EPR-II is a special basis set for epr, autoaux creates a large auxiliary basis
|  2> !PBE EPR-II AUTOAUX RIJCOSX
|  3> 
|  4> # use original (unoptimized) cluster xyz
|  5> *xyzfile -1 3 nv.xyz
|  6> 
|  7> # Parallelization
|  8> %PAL NPROCS 72 END
|  9> 
| 10> # ZFS calculation
| 11> %EPRNMR DTENSOR SSANDSO
| 12>     DSS     UNO
| 13>     DSOC    CP
| 14> END
| 15> 
| 16>                          ****END OF INPUT****
================================================================================

                       ****************************
                       * Single Point Calculation *
                       ****************************

---------------------------------
CARTESIAN COORDINATES (ANGSTROEM)
---------------------------------
  C     -0.494863    1.457911   -2.249811
  C      0.959719    1.094443   -4.258023
  C     -2.847640    0.566540   -2.199697
  C      0.933198   -2.749305   -2.199804
  C      1.914384    2.182916   -2.199700
  C     -2.366321   -0.810859   -0.144983
  C      2.370982    0.797126   -0.144986
  C     -0.495163   -2.451890   -0.145035
  C      0.480930    2.454727   -0.144933
  C     -1.875823    1.654773   -0.144931
  C      1.885388   -1.643858   -0.145037
  C      0.937536    1.068997    0.395617
  C      0.457024   -1.346439    0.395566
  C     -1.394550    0.277415    0.395618
  C     -0.962169   -1.096974   -3.737621
  C     -0.469047    1.381849   -3.737569
  C      1.431117   -0.284619   -3.737623
  C     -2.365778   -0.809889   -1.693673
  C      2.369958    0.797565   -1.693676
  C     -0.494322   -2.451181   -1.693726
  C      0.481447    2.453814   -1.693623
  C     -1.875681    1.653732   -1.693621
  C      1.884286   -1.643809   -1.693727
  C     -1.015142   -1.157424   -2.249865
  C      1.509945   -0.300333   -2.249867
  C     -1.427648    0.284098   -4.258021
  C      0.467817   -1.378249   -4.258075
  N      0.000000    0.000000    0.000000
  H      1.626397    1.854600   -3.907906
  H      0.954983    1.089078   -5.328003
  H     -2.864867    0.569990   -3.269544
  H     -3.833572    0.762668   -1.833101
  H      1.255531   -3.698930   -1.826663
  H      0.941086   -2.772546   -3.269519
  H      1.925950    2.196139   -3.269548
  H      2.577213    2.938684   -1.833106
  H     -2.052380   -1.771091    0.207581
  H     -3.355558   -0.598262    0.203028
  H      3.032116    1.560881    0.207839
  H      2.698520   -0.160310    0.202756
  H     -0.164286   -3.406335    0.207753
  H     -1.488085   -2.256837    0.202744
  H     -0.507615    2.662954    0.207668
  H      1.159673    3.205123    0.203076
  H     -2.867824    1.845440    0.207895
  H     -1.210430    2.417133    0.202848
  H      2.560001   -0.891877    0.207562
  H      2.195890   -2.606875    0.202936
  H      0.945782    1.078364    1.465539
  H      0.461049   -1.358293    1.465488
  H     -1.406793    0.279828    1.465541
  H     -1.624777   -1.852489   -4.105093
  H     -0.792051    2.333453   -4.105005
  H      2.416720   -0.480682   -4.105096
  H     -3.038930   -1.566220   -2.039696
  H      3.364423    0.607273   -2.039701
  H     -1.156363   -3.217257   -2.039749
  H      0.163009    3.414955   -2.039611
  H     -2.208114    2.610124   -2.039609
  H      2.875867   -1.848595   -2.039752
  H     -1.420850    0.282768   -5.328007
  H     -2.419241    0.481353   -3.907684
  H      0.792805   -2.335697   -3.907994
  H      0.465503   -1.371436   -5.328055

----------------------------
CARTESIAN COORDINATES (A.U.)
----------------------------
  NO LB      ZA    FRAG     MASS         X           Y           Z
   0 C     6.0000    0    12.011   -0.935155    2.755052   -4.251526
   1 C     6.0000    0    12.011    1.813606    2.068198   -8.046497
   2 C     6.0000    0    12.011   -5.381260    1.070605   -4.156825
   3 C     6.0000    0    12.011    1.763489   -5.195434   -4.157026
   4 C     6.0000    0    12.011    3.617662    4.125114   -4.156831
   5 C     6.0000    0    12.011   -4.471699   -1.532301   -0.273977
   6 C     6.0000    0    12.011    4.480507    1.506350   -0.273984
   7 C     6.0000    0    12.011   -0.935722   -4.633400   -0.274077
   8 C     6.0000    0    12.011    0.908826    4.638762   -0.273883
   9 C     6.0000    0    12.011   -3.544792    3.127069   -0.273880
  10 C     6.0000    0    12.011    3.562866   -3.106442   -0.274081
  11 C     6.0000    0    12.011    1.771686    2.020111    0.747607
  12 C     6.0000    0    12.011    0.863650   -2.544401    0.747512
  13 C     6.0000    0    12.011   -2.635317    0.524239    0.747611
  14 C     6.0000    0    12.011   -1.818235   -2.072980   -7.063080
  15 C     6.0000    0    12.011   -0.886370    2.611317   -7.062982
  16 C     6.0000    0    12.011    2.704419   -0.537853   -7.063084
  17 C     6.0000    0    12.011   -4.470673   -1.530468   -3.200578
  18 C     6.0000    0    12.011    4.478572    1.507179   -3.200585
  19 C     6.0000    0    12.011   -0.934133   -4.632060   -3.200678
  20 C     6.0000    0    12.011    0.909804    4.637036   -3.200484
  21 C     6.0000    0    12.011   -3.544523    3.125101   -3.200481
  22 C     6.0000    0    12.011    3.560785   -3.106348   -3.200681
  23 C     6.0000    0    12.011   -1.918340   -2.187214   -4.251629
  24 C     6.0000    0    12.011    2.853383   -0.567546   -4.251633
  25 C     6.0000    0    12.011   -2.697863    0.536868   -8.046494
  26 C     6.0000    0    12.011    0.884045   -2.604514   -8.046595
  27 N     7.0000    0    14.007    0.000000    0.000000    0.000000
  28 H     1.0000    0     1.008    3.073445    3.504686   -7.384872
  29 H     1.0000    0     1.008    1.804656    2.058059  -10.068467
  30 H     1.0000    0     1.008   -5.413814    1.077124   -6.178543
  31 H     1.0000    0     1.008   -7.244401    1.441233   -3.464060
  32 H     1.0000    0     1.008    2.372609   -6.989964   -3.451893
  33 H     1.0000    0     1.008    1.778394   -5.239352   -6.178495
  34 H     1.0000    0     1.008    3.639517    4.150101   -6.178550
  35 H     1.0000    0     1.008    4.870227    5.553308   -3.464069
  36 H     1.0000    0     1.008   -3.878437   -3.346878    0.392271
  37 H     1.0000    0     1.008   -6.341085   -1.130552    0.383668
  38 H     1.0000    0     1.008    5.729868    2.949637    0.392758
  39 H     1.0000    0     1.008    5.099464   -0.302942    0.383154
  40 H     1.0000    0     1.008   -0.310456   -6.437040    0.392597
  41 H     1.0000    0     1.008   -2.812072   -4.264803    0.383131
  42 H     1.0000    0     1.008   -0.959253    5.032254    0.392436
  43 H     1.0000    0     1.008    2.191464    6.056805    0.383759
  44 H     1.0000    0     1.008   -5.419402    3.487376    0.392864
  45 H     1.0000    0     1.008   -2.287382    4.567719    0.383326
  46 H     1.0000    0     1.008    4.837700   -1.685403    0.392235
  47 H     1.0000    0     1.008    4.149631   -4.926279    0.383494
  48 H     1.0000    0     1.008    1.787270    2.037813    2.769468
  49 H     1.0000    0     1.008    0.871256   -2.566802    2.769372
  50 H     1.0000    0     1.008   -2.658453    0.528799    2.769471
  51 H     1.0000    0     1.008   -3.070384   -3.500698   -7.757501
  52 H     1.0000    0     1.008   -1.496760    4.409587   -7.757336
  53 H     1.0000    0     1.008    4.566939   -0.908357   -7.757507
  54 H     1.0000    0     1.008   -5.742745   -2.959727   -3.854467
  55 H     1.0000    0     1.008    6.357837    1.147579   -3.854476
  56 H     1.0000    0     1.008   -2.185209   -6.079734   -3.854568
  57 H     1.0000    0     1.008    0.308042    6.453330   -3.854305
  58 H     1.0000    0     1.008   -4.172730    4.932419   -3.854302
  59 H     1.0000    0     1.008    5.434602   -3.493338   -3.854573
  60 H     1.0000    0     1.008   -2.685018    0.534355  -10.068475
  61 H     1.0000    0     1.008   -4.571703    0.909625   -7.384452
  62 H     1.0000    0     1.008    1.498184   -4.413829   -7.385038
  63 H     1.0000    0     1.008    0.879673   -2.591639  -10.068564

--------------------------------
INTERNAL COORDINATES (ANGSTROEM)
--------------------------------
 C      0   0   0     0.000000000000     0.00000000     0.00000000
 C      1   0   0     2.506159188427     0.00000000     0.00000000
 C      1   2   0     2.516468738117   120.47980031     0.00000000
 C      2   1   3     4.360203420856    75.28951498   283.77948099
 C      1   2   3     2.516468891125    60.13666440   174.71907253
 C      3   1   2     2.520068779757    91.79194711   121.28833100
 C      5   1   2     2.520068762524    91.79201995   236.05607764
 C      6   3   1     2.488818367945   120.26272268   304.19020215
 C      7   5   1     2.513948947719    60.08027954   306.41229829
 C      9   7   5     2.488817352605   120.00002882   109.82545098
 C      7   5   1     2.488816776940   120.26270158    55.80983233
 C      7   5   1     1.555934701917    91.16206224   325.68709314
 C      8   6   3     1.555934051830    89.52038817    91.06561730
 C      6   3   1     1.555934061247    91.16212213    34.31292441
 C      3   1   2     2.947455099248    65.88562639    32.41919377
 C      1   2   3     1.489925410469    35.15414078   323.08151362
 C      2   1   3     1.547529030181    92.09616882   273.73521376
 C      3   1   2     1.543634497527    91.74891421    85.78589529
 C      5   1   2     1.543634475045    91.74900365   271.55851522
 C      4   2   1     1.543634426095    89.43441787    30.89183770
 C      1   2   3     1.501448810331    90.89532351   191.81515946
 C      1   2   3     1.501449344685   148.15946931   329.09681941
 C      4   2   1     1.543633746705    61.29331667   278.87882689
 C     15   3   1     1.489925437894    58.60967734    79.25168916
 C     17   2   1     1.489925476694   111.18022715   326.95804090
 C     16   1   2     1.547528290242   111.18021293   121.75553494
 C     17   2   1     1.547528292840   109.09004222    89.92306832
 N     12   7   5     1.475886139130   111.44049750    93.52608410
 H      2   1   3     1.069990716864    89.79352599   164.26253075
 H      2   1   3     1.070004294789   143.07770561    40.86734307
 H      3   1   2     1.069991509762    89.65616664   336.17389652
 H      3   1   2     1.070008907617   143.45442869   213.40182389
 H      4   2   1     1.070008629907   160.93593849   213.27452147
 H      4   2   1     1.069996784571    63.07524134   143.53512800
 H     29   2   1     0.783506148203   144.53757492    32.14134802
 H      5   1   2     1.070008457637   143.45441155   143.94258782
 H      6   3   1     1.070002931628   144.60622174   267.56155985
 H      6   3   1     1.069998801564    88.85452189   143.28877487
 H      7   5   1     1.070001690730    89.32902229   216.43024002
 H      7   5   1     1.069995563978   144.34073002    91.60649890
 H      8   6   3     1.070002207148   145.14813580   215.49452428
 H     37   6   3     0.744581473097   143.67474239    62.06104378
 H      9   7   5     1.070002897399   145.37732652   145.27378864
 H      9   7   5     1.069998337305    89.16959390   270.84373778
 H     10   9   7     1.070002153485   145.14812967   144.76011289
 H     43   9   7     0.744581167167   143.67473633   300.54055360
 H     40   7   5     0.744581003377   145.51897274   298.58473543
 H     11   7   5     1.069998827310   145.69948100   144.51454584
 H     12   7   5     1.069995472816   109.98972409   211.05044893
 H     13   8   6     1.069995477078   109.98975811    90.79100384
 H     14   6   3     1.069995466059   109.98975817   148.94952877
 H     15   3   1     1.069995020443   100.46116412   182.87308409
 H     16   1   2     1.069995530406   106.99377716   240.87773468
 H     17   2   1     1.069995470870   109.17096224   209.14698708
 H     18   3   1     1.070001083497   109.14081200   209.46733763
 H     19   5   1     1.070001544483   109.14088142   150.53266272
 H     20   4   2     1.070001076809   109.14085336   120.92648836
 H     21   1   2     1.070001583798   106.41034510    92.35939569
 H     22   1   2     1.070001596232   106.41041639   291.94871443
 H     23   4   2     1.070001549622   109.14085329   258.30749262
 H     26  16   1     1.070008557447   109.46621819   177.47400822
 H     31   3   1     0.783365299068   143.60830352    31.99437323
 H     34   4   2     0.787701494498   142.83583386   341.07939140
 H     27  17   2     1.070004297037   109.46009775    59.54970979

---------------------------
INTERNAL COORDINATES (A.U.)
---------------------------
 C      0   0   0     0.000000000000     0.00000000     0.00000000
 C      1   0   0     4.735954514138     0.00000000     0.00000000
 C      1   2   0     4.755436739616   120.47980031     0.00000000
 C      2   1   3     8.239590353604    75.28951498   283.77948099
 C      1   2   3     4.755437028760    60.13666440   174.71907253
 C      3   1   2     4.762239832386    91.79194711   121.28833100
 C      5   1   2     4.762239799819    91.79201995   236.05607764
 C      6   3   1     4.703185112489   120.26272268   304.19020215
 C      7   5   1     4.750675025849    60.08027954   306.41229829
 C      9   7   5     4.703183193774   120.00002882   109.82545098
 C      7   5   1     4.703182105925   120.26270158    55.80983233
 C      7   5   1     2.940290468887    91.16206224   325.68709314
 C      8   6   3     2.940289240402    89.52038817    91.06561730
 C      6   3   1     2.940289258197    91.16212213    34.31292441
 C      3   1   2     5.569882929608    65.88562639    32.41919377
 C      1   2   3     2.815550985757    35.15414078   323.08151362
 C      2   1   3     2.924406051336    92.09616882   273.73521376
 C      3   1   2     2.917046451199    91.74891421    85.78589529
 C      5   1   2     2.917046408714    91.74900365   271.55851522
 C      4   2   1     2.917046316213    89.43441787    30.89183770
 C      1   2   3     2.837327055628    90.89532351   191.81515946
 C      1   2   3     2.837328065409   148.15946931   329.09681941
 C      4   2   1     2.917045032352    61.29331667   278.87882689
 C     15   3   1     2.815551037583    58.60967734    79.25168916
 C     17   2   1     2.815551110904   111.18022715   326.95804090
 C     16   1   2     2.924404653053   111.18021293   121.75553494
 C     17   2   1     2.924404657962   109.09004222    89.92306832
 N     12   7   5     2.789020607807   111.44049750    93.52608410
 H      2   1   3     2.021989420711    89.79352599   164.26253075
 H      2   1   3     2.022015079270   143.07770561    40.86734307
 H      3   1   2     2.021990919071    89.65616664   336.17389652
 H      3   1   2     2.022023796253   143.45442869   213.40182389
 H      4   2   1     2.022023271457   160.93593849   213.27452147
 H      4   2   1     2.022000887015    63.07524134   143.53512800
 H     29   2   1     1.480612044347   144.53757492    32.14134802
 H      5   1   2     2.022022945914   143.45441155   143.94258782
 H      6   3   1     2.022012503270   144.60622174   267.56155985
 H      6   3   1     2.022004698579    88.85452189   143.28877487
 H      7   5   1     2.022010158313    89.32902229   216.43024002
 H      7   5   1     2.021998580428   144.34073002    91.60649890
 H      8   6   3     2.022011134202   145.14813580   215.49452428
 H     37   6   3     1.407055068546   143.67474239    62.06104378
 H      9   7   5     2.022012438586   145.37732652   145.27378864
 H      9   7   5     2.022003821257    89.16959390   270.84373778
 H     10   9   7     2.022011032793   145.14812967   144.76011289
 H     43   9   7     1.407054490421   143.67473633   300.54055360
 H     40   7   5     1.407054180903   145.51897274   298.58473543
 H     11   7   5     2.022004747234   145.69948100   144.51454584
 H     12   7   5     2.021998408157   109.98972409   211.05044893
 H     13   8   6     2.021998416212   109.98975811    90.79100384
 H     14   6   3     2.021998395389   109.98975817   148.94952877
 H     15   3   1     2.021997553298   100.46116412   182.87308409
 H     16   1   2     2.021998516988   106.99377716   240.87773468
 H     17   2   1     2.021998404480   109.17096224   209.14698708
 H     18   3   1     2.022009010808   109.14081200   209.46733763
 H     19   5   1     2.022009881945   109.14088142   150.53266272
 H     20   4   2     2.022008998170   109.14085336   120.92648836
 H     21   1   2     2.022009956239   106.41034510    92.35939569
 H     22   1   2     2.022009979738   106.41041639   291.94871443
 H     23   4   2     2.022009891657   109.14085329   258.30749262
 H     26  16   1     2.022023134526   109.46621819   177.47400822
 H     31   3   1     1.480345878056   143.60830352    31.99437323
 H     34   4   2     1.488540099882   142.83583386   341.07939140
 H     27  17   2     2.022015083519   109.46009775    59.54970979

---------------------
BASIS SET INFORMATION
---------------------
There are 3 groups of distinct atoms

 Group   1 Type C   : 10s5p1d contracted to 6s2p1d pattern {511111/41/1}
 Group   2 Type N   : 10s5p1d contracted to 6s2p1d pattern {511111/41/1}
 Group   3 Type H   : 6s1p contracted to 4s1p pattern {3111/1}

Atom   0C    basis set group =>   1
Atom   1C    basis set group =>   1
Atom   2C    basis set group =>   1
Atom   3C    basis set group =>   1
Atom   4C    basis set group =>   1
Atom   5C    basis set group =>   1
Atom   6C    basis set group =>   1
Atom   7C    basis set group =>   1
Atom   8C    basis set group =>   1
Atom   9C    basis set group =>   1
Atom  10C    basis set group =>   1
Atom  11C    basis set group =>   1
Atom  12C    basis set group =>   1
Atom  13C    basis set group =>   1
Atom  14C    basis set group =>   1
Atom  15C    basis set group =>   1
Atom  16C    basis set group =>   1
Atom  17C    basis set group =>   1
Atom  18C    basis set group =>   1
Atom  19C    basis set group =>   1
Atom  20C    basis set group =>   1
Atom  21C    basis set group =>   1
Atom  22C    basis set group =>   1
Atom  23C    basis set group =>   1
Atom  24C    basis set group =>   1
Atom  25C    basis set group =>   1
Atom  26C    basis set group =>   1
Atom  27N    basis set group =>   2
Atom  28H    basis set group =>   3
Atom  29H    basis set group =>   3
Atom  30H    basis set group =>   3
Atom  31H    basis set group =>   3
Atom  32H    basis set group =>   3
Atom  33H    basis set group =>   3
Atom  34H    basis set group =>   3
Atom  35H    basis set group =>   3
Atom  36H    basis set group =>   3
Atom  37H    basis set group =>   3
Atom  38H    basis set group =>   3
Atom  39H    basis set group =>   3
Atom  40H    basis set group =>   3
Atom  41H    basis set group =>   3
Atom  42H    basis set group =>   3
Atom  43H    basis set group =>   3
Atom  44H    basis set group =>   3
Atom  45H    basis set group =>   3
Atom  46H    basis set group =>   3
Atom  47H    basis set group =>   3
Atom  48H    basis set group =>   3
Atom  49H    basis set group =>   3
Atom  50H    basis set group =>   3
Atom  51H    basis set group =>   3
Atom  52H    basis set group =>   3
Atom  53H    basis set group =>   3
Atom  54H    basis set group =>   3
Atom  55H    basis set group =>   3
Atom  56H    basis set group =>   3
Atom  57H    basis set group =>   3
Atom  58H    basis set group =>   3
Atom  59H    basis set group =>   3
Atom  60H    basis set group =>   3
Atom  61H    basis set group =>   3
Atom  62H    basis set group =>   3
Atom  63H    basis set group =>   3
---------------------------------
AUXILIARY/J BASIS SET INFORMATION
---------------------------------
There are 3 groups of distinct atoms

 Group   1 Type C   : 17s13p12d2f contracted to 17s13p12d2f pattern {11111111111111111/1111111111111/111111111111/11}
 Group   2 Type N   : 17s13p12d2f contracted to 17s13p12d2f pattern {11111111111111111/1111111111111/111111111111/11}
 Group   3 Type H   : 15s6p1d contracted to 15s6p1d pattern {111111111111111/111111/1}

Atom   0C    basis set group =>   1
Atom   1C    basis set group =>   1
Atom   2C    basis set group =>   1
Atom   3C    basis set group =>   1
Atom   4C    basis set group =>   1
Atom   5C    basis set group =>   1
Atom   6C    basis set group =>   1
Atom   7C    basis set group =>   1
Atom   8C    basis set group =>   1
Atom   9C    basis set group =>   1
Atom  10C    basis set group =>   1
Atom  11C    basis set group =>   1
Atom  12C    basis set group =>   1
Atom  13C    basis set group =>   1
Atom  14C    basis set group =>   1
Atom  15C    basis set group =>   1
Atom  16C    basis set group =>   1
Atom  17C    basis set group =>   1
Atom  18C    basis set group =>   1
Atom  19C    basis set group =>   1
Atom  20C    basis set group =>   1
Atom  21C    basis set group =>   1
Atom  22C    basis set group =>   1
Atom  23C    basis set group =>   1
Atom  24C    basis set group =>   1
Atom  25C    basis set group =>   1
Atom  26C    basis set group =>   1
Atom  27N    basis set group =>   2
Atom  28H    basis set group =>   3
Atom  29H    basis set group =>   3
Atom  30H    basis set group =>   3
Atom  31H    basis set group =>   3
Atom  32H    basis set group =>   3
Atom  33H    basis set group =>   3
Atom  34H    basis set group =>   3
Atom  35H    basis set group =>   3
Atom  36H    basis set group =>   3
Atom  37H    basis set group =>   3
Atom  38H    basis set group =>   3
Atom  39H    basis set group =>   3
Atom  40H    basis set group =>   3
Atom  41H    basis set group =>   3
Atom  42H    basis set group =>   3
Atom  43H    basis set group =>   3
Atom  44H    basis set group =>   3
Atom  45H    basis set group =>   3
Atom  46H    basis set group =>   3
Atom  47H    basis set group =>   3
Atom  48H    basis set group =>   3
Atom  49H    basis set group =>   3
Atom  50H    basis set group =>   3
Atom  51H    basis set group =>   3
Atom  52H    basis set group =>   3
Atom  53H    basis set group =>   3
Atom  54H    basis set group =>   3
Atom  55H    basis set group =>   3
Atom  56H    basis set group =>   3
Atom  57H    basis set group =>   3
Atom  58H    basis set group =>   3
Atom  59H    basis set group =>   3
Atom  60H    basis set group =>   3
Atom  61H    basis set group =>   3
Atom  62H    basis set group =>   3
Atom  63H    basis set group =>   3
---------------------------------
AUXILIARY/C BASIS SET INFORMATION
---------------------------------
There are 3 groups of distinct atoms

 Group   1 Type C   : 17s13p12d2f contracted to 17s13p12d2f pattern {11111111111111111/1111111111111/111111111111/11}
 Group   2 Type N   : 17s13p12d2f contracted to 17s13p12d2f pattern {11111111111111111/1111111111111/111111111111/11}
 Group   3 Type H   : 15s6p1d contracted to 15s6p1d pattern {111111111111111/111111/1}

Atom   0C    basis set group =>   1
Atom   1C    basis set group =>   1
Atom   2C    basis set group =>   1
Atom   3C    basis set group =>   1
Atom   4C    basis set group =>   1
Atom   5C    basis set group =>   1
Atom   6C    basis set group =>   1
Atom   7C    basis set group =>   1
Atom   8C    basis set group =>   1
Atom   9C    basis set group =>   1
Atom  10C    basis set group =>   1
Atom  11C    basis set group =>   1
Atom  12C    basis set group =>   1
Atom  13C    basis set group =>   1
Atom  14C    basis set group =>   1
Atom  15C    basis set group =>   1
Atom  16C    basis set group =>   1
Atom  17C    basis set group =>   1
Atom  18C    basis set group =>   1
Atom  19C    basis set group =>   1
Atom  20C    basis set group =>   1
Atom  21C    basis set group =>   1
Atom  22C    basis set group =>   1
Atom  23C    basis set group =>   1
Atom  24C    basis set group =>   1
Atom  25C    basis set group =>   1
Atom  26C    basis set group =>   1
Atom  27N    basis set group =>   2
Atom  28H    basis set group =>   3
Atom  29H    basis set group =>   3
Atom  30H    basis set group =>   3
Atom  31H    basis set group =>   3
Atom  32H    basis set group =>   3
Atom  33H    basis set group =>   3
Atom  34H    basis set group =>   3
Atom  35H    basis set group =>   3
Atom  36H    basis set group =>   3
Atom  37H    basis set group =>   3
Atom  38H    basis set group =>   3
Atom  39H    basis set group =>   3
Atom  40H    basis set group =>   3
Atom  41H    basis set group =>   3
Atom  42H    basis set group =>   3
Atom  43H    basis set group =>   3
Atom  44H    basis set group =>   3
Atom  45H    basis set group =>   3
Atom  46H    basis set group =>   3
Atom  47H    basis set group =>   3
Atom  48H    basis set group =>   3
Atom  49H    basis set group =>   3
Atom  50H    basis set group =>   3
Atom  51H    basis set group =>   3
Atom  52H    basis set group =>   3
Atom  53H    basis set group =>   3
Atom  54H    basis set group =>   3
Atom  55H    basis set group =>   3
Atom  56H    basis set group =>   3
Atom  57H    basis set group =>   3
Atom  58H    basis set group =>   3
Atom  59H    basis set group =>   3
Atom  60H    basis set group =>   3
Atom  61H    basis set group =>   3
Atom  62H    basis set group =>   3
Atom  63H    basis set group =>   3
----------------------------------
AUXILIARY/JK BASIS SET INFORMATION
----------------------------------
There are 3 groups of distinct atoms

 Group   1 Type C   : 17s13p12d2f contracted to 17s13p12d2f pattern {11111111111111111/1111111111111/111111111111/11}
 Group   2 Type N   : 17s13p12d2f contracted to 17s13p12d2f pattern {11111111111111111/1111111111111/111111111111/11}
 Group   3 Type H   : 15s6p1d contracted to 15s6p1d pattern {111111111111111/111111/1}

Atom   0C    basis set group =>   1
Atom   1C    basis set group =>   1
Atom   2C    basis set group =>   1
Atom   3C    basis set group =>   1
Atom   4C    basis set group =>   1
Atom   5C    basis set group =>   1
Atom   6C    basis set group =>   1
Atom   7C    basis set group =>   1
Atom   8C    basis set group =>   1
Atom   9C    basis set group =>   1
Atom  10C    basis set group =>   1
Atom  11C    basis set group =>   1
Atom  12C    basis set group =>   1
Atom  13C    basis set group =>   1
Atom  14C    basis set group =>   1
Atom  15C    basis set group =>   1
Atom  16C    basis set group =>   1
Atom  17C    basis set group =>   1
Atom  18C    basis set group =>   1
Atom  19C    basis set group =>   1
Atom  20C    basis set group =>   1
Atom  21C    basis set group =>   1
Atom  22C    basis set group =>   1
Atom  23C    basis set group =>   1
Atom  24C    basis set group =>   1
Atom  25C    basis set group =>   1
Atom  26C    basis set group =>   1
Atom  27N    basis set group =>   2
Atom  28H    basis set group =>   3
Atom  29H    basis set group =>   3
Atom  30H    basis set group =>   3
Atom  31H    basis set group =>   3
Atom  32H    basis set group =>   3
Atom  33H    basis set group =>   3
Atom  34H    basis set group =>   3
Atom  35H    basis set group =>   3
Atom  36H    basis set group =>   3
Atom  37H    basis set group =>   3
Atom  38H    basis set group =>   3
Atom  39H    basis set group =>   3
Atom  40H    basis set group =>   3
Atom  41H    basis set group =>   3
Atom  42H    basis set group =>   3
Atom  43H    basis set group =>   3
Atom  44H    basis set group =>   3
Atom  45H    basis set group =>   3
Atom  46H    basis set group =>   3
Atom  47H    basis set group =>   3
Atom  48H    basis set group =>   3
Atom  49H    basis set group =>   3
Atom  50H    basis set group =>   3
Atom  51H    basis set group =>   3
Atom  52H    basis set group =>   3
Atom  53H    basis set group =>   3
Atom  54H    basis set group =>   3
Atom  55H    basis set group =>   3
Atom  56H    basis set group =>   3
Atom  57H    basis set group =>   3
Atom  58H    basis set group =>   3
Atom  59H    basis set group =>   3
Atom  60H    basis set group =>   3
Atom  61H    basis set group =>   3
Atom  62H    basis set group =>   3
Atom  63H    basis set group =>   3


           ************************************************************
           *        Program running with 72 parallel MPI-processes    *
           *              working on a shared directory               *
           ************************************************************
------------------------------------------------------------------------------
                           ORCA GTO INTEGRAL CALCULATION
                           -- RI-GTO INTEGRALS CHOSEN --
------------------------------------------------------------------------------

                         BASIS SET STATISTICS AND STARTUP INFO

Gaussian basis set:
 # of primitive gaussian shells          ...  700
 # of primitive gaussian functions       ... 1164
 # of contracted shells                  ...  432
 # of contracted basis functions         ...  728
 Highest angular momentum                ...    2
 Maximum contraction depth               ...    5
Auxiliary gaussian basis set:
 # of primitive gaussian shells          ... 2024
 # of primitive gaussian functions       ... 5008
 # of contracted shells                  ... 2024
 # of contracted aux-basis functions     ... 5008
 Highest angular momentum                ...    3
 Maximum contraction depth               ...    1
Ratio of auxiliary to basis functions    ...  6.88
Integral package used                  ... LIBINT
 One Electron integrals                  ... done
 Ordering auxiliary basis shells         ... done
 Integral threshhold             Thresh  ...  1.000e-10
 Primitive cut-off               TCut    ...  1.000e-11
 Pre-screening matrix                    ... done
 Shell pair data                         ... 
 Ordering of the shell pairs             ... done (   0.016 sec) 66490 of 93528 pairs
 Determination of significant pairs      ... done (   0.000 sec)
 Creation of shell pair data             ... done (   0.015 sec)
 Storage of shell pair data              ... done (   0.030 sec)
 Shell pair data done in (   0.061 sec)
 Computing two index integrals           ... done
 Cholesky decomposition of the V-matrix  ... done


Timings:
 Total evaluation time                   ...   4.558 sec (  0.076 min)
 One electron matrix time                ...   0.733 sec (  0.012 min) = 16.1%
 Schwartz matrix evaluation time         ...   0.391 sec (  0.007 min) =  8.6%
 Two index repulsion integral time       ...   0.995 sec (  0.017 min) = 21.8%
 Cholesky decomposition of V             ...   2.349 sec (  0.039 min) = 51.5%
 Three index repulsion integral time     ...   0.001 sec (  0.000 min) =  0.0%



           ************************************************************
           *        Program running with 72 parallel MPI-processes    *
           *              working on a shared directory               *
           ************************************************************
-------------------------------------------------------------------------------
                                 ORCA SCF
-------------------------------------------------------------------------------

------------
SCF SETTINGS
------------
Hamiltonian:
 Density Functional     Method          .... DFT(GTOs)
 Exchange Functional    Exchange        .... PBE
   PBE kappa parameter   XKappa         ....  0.804000
   PBE mue parameter    XMuePBE         ....  0.219520
 Correlation Functional Correlation     .... PBE
   PBE beta parameter  CBetaPBE         ....  0.066725
 LDA part of GGA corr.  LDAOpt          .... PW91-LDA
 Gradients option       PostSCFGGA      .... off
   Density functional embedding theory  .... OFF
   NL short-range parameter             ....  6.400000
 RI-approximation to the Coulomb term is turned on
   Number of auxiliary basis functions  .... 5008
   RIJ-COSX (HFX calculated with COS-X)).... on


General Settings:
 Integral files         IntName         .... zfs
 Hartree-Fock type      HFTyp           .... UHF
 Total Charge           Charge          ....   -1
 Multiplicity           Mult            ....    3
 Number of Electrons    NEL             ....  206
 Basis Dimension        Dim             ....  728
 Nuclear Repulsion      ENuc            ....   3308.0184381375 Eh

Convergence Acceleration:
 DIIS                   CNVDIIS         .... on
   Start iteration      DIISMaxIt       ....    12
   Startup error        DIISStart       ....  0.200000
   # of expansion vecs  DIISMaxEq       ....     5
   Bias factor          DIISBfac        ....   1.050
   Max. coefficient     DIISMaxC        ....  10.000
 Newton-Raphson         CNVNR           .... off
 SOSCF                  CNVSOSCF        .... off
 Level Shifting         CNVShift        .... on
   Level shift para.    LevelShift      ....    0.2500
   Turn off err/grad.   ShiftErr        ....    0.0010
 Zerner damping         CNVZerner       .... off
 Static damping         CNVDamp         .... on
   Fraction old density DampFac         ....    0.7000
   Max. Damping (<1)    DampMax         ....    0.9800
   Min. Damping (>=0)   DampMin         ....    0.0000
   Turn off err/grad.   DampErr         ....    0.1000
 Fernandez-Rico         CNVRico         .... off

SCF Procedure:
 Maximum # iterations   MaxIter         ....   125
 SCF integral mode      SCFMode         .... Direct
   Integral package                     .... LIBINT
 Reset frequency        DirectResetFreq ....    20
 Integral Threshold     Thresh          ....  1.000e-10 Eh
 Primitive CutOff       TCut            ....  1.000e-11 Eh

Convergence Tolerance:
 Convergence Check Mode ConvCheckMode   .... Total+1el-Energy
 Convergence forced     ConvForced      .... 0
 Energy Change          TolE            ....  1.000e-06 Eh
 1-El. energy change                    ....  1.000e-03 Eh
 DIIS Error             TolErr          ....  1.000e-06


Diagonalization of the overlap matrix:
Smallest eigenvalue                        ... 1.744e-04
Time for diagonalization                   ...    0.151 sec
Threshold for overlap eigenvalues          ... 1.000e-08
Number of eigenvalues below threshold      ... 0
Time for construction of square roots      ...    0.302 sec
Total time needed                          ...    0.457 sec

-------------------
DFT GRID GENERATION
-------------------

General Integration Accuracy     IntAcc      ...  4.340
Radial Grid Type                 RadialGrid  ... Gauss-Chebyshev
Angular Grid (max. acc.)         AngularGrid ... Lebedev-110
Angular grid pruning method      GridPruning ... 3 (G Style)
Weight generation scheme         WeightScheme... Becke
Basis function cutoff            BFCut       ...    1.0000e-10
Integration weight cutoff        WCut        ...    1.0000e-14
Grids for H and He will be reduced by one unit

# of grid points (after initial pruning)     ...  74998 (   0.0 sec)
# of grid points (after weights+screening)   ...  62490 (   0.1 sec)
nearest neighbour list constructed           ...    0.0 sec
Grid point re-assignment to atoms done       ...    0.0 sec
Grid point division into batches done        ...    0.1 sec
Reduced shell lists constructed in    0.1 sec

Total number of grid points                  ...    62490
Total number of batches                      ...     1009
Average number of points per batch           ...       61
Average number of grid points per atom       ...      976
Average number of shells per batch           ...   227.25 (52.60%)
Average number of basis functions per batch  ...   456.25 (62.67%)
Average number of large shells per batch     ...   171.00 (75.25%)
Average number of large basis fcns per batch ...   341.12 (74.77%)
Maximum spatial batch extension              ...   2.32,  2.32,  1.83 au
Average spatial batch extension              ...   0.03,  0.03,  0.02 au

Time for grid setup =    0.431 sec

------------------------------
INITIAL GUESS: MODEL POTENTIAL
------------------------------
Loading Hartree-Fock densities                     ... done
Calculating cut-offs                               ... done
Setting up the integral package                    ... done
Initializing the effective Hamiltonian             ... done
Starting the Coulomb interaction                   ... done (   0.1 sec)
Reading the grid                                   ... done
Mapping shells                                     ... done
Starting the XC term evaluation                    ... done (   0.2 sec)
  promolecular density results
     # of electrons  =    204.978271840
     EX              =   -156.127120225
     EC              =     -7.167179469
     EX+EC           =   -163.294299695
Transforming the Hamiltonian                       ... done (   0.1 sec)
Diagonalizing the Hamiltonian                      ... done (   0.1 sec)
Back transforming the eigenvectors                 ... done (   0.1 sec)
Now organizing SCF variables                       ... done
                      ------------------
                      INITIAL GUESS DONE (   1.2 sec)
                      ------------------
--------------------
COSX GRID GENERATION
--------------------

General Integration Accuracy     IntAcc      ...  3.340
Radial Grid Type                 RadialGrid  ... Gauss-Chebyshev
Angular Grid (max. acc.)         AngularGrid ... Lebedev-50
Angular grid pruning method      GridPruning ... 3 (G Style)
Weight generation scheme         WeightScheme... Becke
Basis function cutoff            BFCut       ...    1.0000e-10
Integration weight cutoff        WCut        ...    1.0000e-14
Grids for H and He will be reduced by one unit

# of grid points (after initial pruning)     ...  27746 (   0.0 sec)
# of grid points (after weights+screening)   ...  23396 (   0.0 sec)
nearest neighbour list constructed           ...    0.0 sec
Grid point re-assignment to atoms done       ...    0.0 sec
Grid point division into batches done        ...    0.0 sec
Reduced shell lists constructed in    0.0 sec

Total number of grid points                  ...    23396
Total number of batches                      ...      397
Average number of points per batch           ...       58
Average number of grid points per atom       ...      366
Average number of shells per batch           ...   219.57 (50.83%)
Average number of basis functions per batch  ...   441.00 (60.58%)
Average number of large shells per batch     ...   164.57 (74.95%)
Average number of large basis fcns per batch ...   330.00 (74.83%)
Maximum spatial batch extension              ...   2.98,  3.04,  2.80 au
Average spatial batch extension              ...   0.04,  0.03,  0.04 au

Overlap Fitting                  UseSFitting ... on
Constructing numerical overlap ... done (      0.0 sec)
Inverting numerical overlap    ... done (      0.0 sec)
Obtaining analytic overlap     ... done (      0.0 sec)
Final contraction and storage  ... done (      0.1 sec)


General Integration Accuracy     IntAcc      ...  3.670
Radial Grid Type                 RadialGrid  ... Gauss-Chebyshev
Angular Grid (max. acc.)         AngularGrid ... Lebedev-50
Angular grid pruning method      GridPruning ... 3 (G Style)
Weight generation scheme         WeightScheme... Becke
Basis function cutoff            BFCut       ...    1.0000e-10
Integration weight cutoff        WCut        ...    1.0000e-14
Grids for H and He will be reduced by one unit

# of grid points (after initial pruning)     ...  35464 (   0.0 sec)
# of grid points (after weights+screening)   ...  29832 (   0.0 sec)
nearest neighbour list constructed           ...    0.0 sec
Grid point re-assignment to atoms done       ...    0.0 sec
Grid point division into batches done        ...    0.0 sec
Reduced shell lists constructed in    0.0 sec

Total number of grid points                  ...    29832
Total number of batches                      ...      499
Average number of points per batch           ...       59
Average number of grid points per atom       ...      466
Average number of shells per batch           ...   224.38 (51.94%)
Average number of basis functions per batch  ...   449.88 (61.80%)
Average number of large shells per batch     ...   168.50 (75.10%)
Average number of large basis fcns per batch ...   337.00 (74.91%)
Maximum spatial batch extension              ...   3.23,  2.65,  2.87 au
Average spatial batch extension              ...   0.03,  0.03,  0.03 au

Overlap Fitting                  UseSFitting ... on
Constructing numerical overlap ... done (      0.0 sec)
Inverting numerical overlap    ... done (      0.0 sec)
Obtaining analytic overlap     ... done (      0.0 sec)
Final contraction and storage  ... done (      0.1 sec)


General Integration Accuracy     IntAcc      ...  4.010
Radial Grid Type                 RadialGrid  ... Gauss-Chebyshev
Angular Grid (max. acc.)         AngularGrid ... Lebedev-110
Angular grid pruning method      GridPruning ... 3 (G Style)
Weight generation scheme         WeightScheme... Becke
Basis function cutoff            BFCut       ...    1.0000e-10
Integration weight cutoff        WCut        ...    1.0000e-14
Grids for H and He will be reduced by one unit

# of grid points (after initial pruning)     ...  65152 (   0.0 sec)
# of grid points (after weights+screening)   ...  54577 (   0.1 sec)
nearest neighbour list constructed           ...    0.0 sec
Grid point re-assignment to atoms done       ...    0.0 sec
Grid point division into batches done        ...    0.0 sec
Reduced shell lists constructed in    0.1 sec

Total number of grid points                  ...    54577
Total number of batches                      ...      886
Average number of points per batch           ...       61
Average number of grid points per atom       ...      853
Average number of shells per batch           ...   227.00 (52.55%)
Average number of basis functions per batch  ...   455.14 (62.52%)
Average number of large shells per batch     ...   170.50 (75.11%)
Average number of large basis fcns per batch ...   340.36 (74.78%)
Maximum spatial batch extension              ...   2.63,  2.67,  2.59 au
Average spatial batch extension              ...   0.03,  0.03,  0.03 au

Overlap Fitting                  UseSFitting ... on
Constructing numerical overlap ... done (      0.1 sec)
Inverting numerical overlap    ... done (      0.0 sec)
Obtaining analytic overlap     ... done (      0.0 sec)
Final contraction and storage  ... done (      0.1 sec)

Time for X-Grid setup             =    1.301 sec
--------------
SCF ITERATIONS
--------------
ITER       Energy         Delta-E        Max-DP      RMS-DP      [F,P]     Damp
               ***  Starting incremental Fock matrix formation  ***
  0  -1102.3558335968   0.000000000000 7.91786228  0.02044576  0.1512578 0.7000
  1  -1102.7809419394  -0.425108342562 5.08092028  0.01276668  0.0656640 0.7000
                               ***Turning on DIIS***
  2  -1102.8709867612  -0.090044821805 0.84742121  0.00363267  0.0352301 0.0000
  3  -1103.1243361713  -0.253349410143 4.59937085  0.01134531  0.0323181 0.0000
  4  -1103.1575311703  -0.033194998923 1.48654675  0.00365345  0.0198658 0.0000
  5  -1103.1668848455  -0.009353675255 0.66941017  0.00160844  0.0057996 0.0000
  6  -1103.1682252942  -0.001340448726 0.45576658  0.00108401  0.0014017 0.0000
  7  -1103.1684322876  -0.000206993367 0.27554984  0.00064222  0.0022860 0.0000
  8  -1103.1685372441  -0.000104956523 0.57950998  0.00132491  0.0005470 0.0000
  9  -1103.1686041231  -0.000066878996 0.10545251  0.00029147  0.0007703 0.0000
 10  -1103.1686107081  -0.000006584928 0.09628032  0.00022777  0.0005444 0.0000
 11  -1103.1686154128  -0.000004704741 0.03044777  0.00006768  0.0003856 0.0000
 12  -1103.1686173678  -0.000001954997 0.00992639  0.00002000  0.0000691 0.0000
 13  -1103.1686172038   0.000000164035 0.00597857  0.00001194  0.0000870 0.0000
                 **** Energy Check signals convergence ****

               *****************************************************
               *                     SUCCESS                       *
               *           SCF CONVERGED AFTER  14 CYCLES          *
               *****************************************************

Setting up the final grid:

General Integration Accuracy     IntAcc      ...  4.670
Radial Grid Type                 RadialGrid  ... Gauss-Chebyshev
Angular Grid (max. acc.)         AngularGrid ... Lebedev-302
Angular grid pruning method      GridPruning ... 3 (G Style)
Weight generation scheme         WeightScheme... Becke
Basis function cutoff            BFCut       ...    1.0000e-10
Integration weight cutoff        WCut        ...    1.0000e-14
Grids for H and He will be reduced by one unit

# of grid points (after initial pruning)     ... 296120 (   0.0 sec)
# of grid points (after weights+screening)   ... 239122 (   0.2 sec)
nearest neighbour list constructed           ...    0.0 sec
Grid point re-assignment to atoms done       ...    0.1 sec
Grid point division into batches done        ...    0.8 sec
Reduced shell lists constructed in    0.9 sec

Total number of grid points                  ...   239122
Total number of batches                      ...     3767
Average number of points per batch           ...       63
Average number of grid points per atom       ...     3736
Average number of shells per batch           ...   226.74 (52.49%)
Average number of basis functions per batch  ...   456.22 (62.67%)
Average number of large shells per batch     ...   168.26 (74.21%)
Average number of large basis fcns per batch ...   332.07 (72.79%)
Maximum spatial batch extension              ...   2.22,  1.70,  1.82 au
Average spatial batch extension              ...   0.02,  0.02,  0.02 au

Final grid set up in    1.3 sec
Final integration                            ... done (   0.9 sec)
Change in XC energy                          ...     0.000613040
Integrated number of electrons               ...   206.000412775
Previous integrated no of electrons          ...   206.001863390

----------------
TOTAL SCF ENERGY
----------------

Total Energy       :        -1103.16800438 Eh          -30018.72752 eV

Components:
Nuclear Repulsion  :         3308.01843814 Eh           90015.75801 eV
Electronic Energy  :        -4411.18644252 Eh         -120034.48554 eV
One Electron Energy:        -8103.21297463 Eh         -220499.63502 eV
Two Electron Energy:         3692.02653210 Eh          100465.14949 eV

Virial components:
Potential Energy   :        -2203.45364979 Eh          -59959.02207 eV
Kinetic Energy     :         1100.28564540 Eh           29940.29455 eV
Virial Ratio       :            2.00261965


DFT components:
N(Alpha)           :      104.000195306567 electrons
N(Beta)            :      102.000217467996 electrons
N(Total)           :      206.000412774562 electrons
E(X)               :     -159.756424012370 Eh       
E(C)               :       -7.077044959761 Eh       
E(XC)              :     -166.833468972132 Eh       
DFET-embed. en.    :        0.000000000000 Eh       

---------------
SCF CONVERGENCE
---------------

  Last Energy change         ...   -2.1998e-07  Tolerance :   1.0000e-06
  Last MAX-Density change    ...    5.4495e-04  Tolerance :   1.0000e-05
  Last RMS-Density change    ...    1.9114e-06  Tolerance :   1.0000e-06
  Last DIIS Error            ...    3.3575e-05  Tolerance :   1.0000e-06

             **** THE GBW FILE WAS UPDATED (zfs.gbw) ****
             **** DENSITY FILE WAS UPDATED (zfs.scfp) ****
             **** ENERGY FILE WAS UPDATED (zfs.en.tmp) ****
----------------------
UHF SPIN CONTAMINATION
----------------------

Warning: in a DFT calculation there is little theoretical justification to 
         calculate <S**2> as in Hartree-Fock theory. We will do it anyways
         but you should keep in mind that the values have only limited relevance

Expectation value of <S**2>     :     2.011091
Ideal value S*(S+1) for S=1.0   :     2.000000
Deviation                       :     0.011091

             **** THE GBW FILE WAS UPDATED (zfs.gbw) ****
             **** DENSITY FILE WAS UPDATED (zfs.scfp) ****
----------------
ORBITAL ENERGIES
----------------
                 SPIN UP ORBITALS
  NO   OCC          E(Eh)            E(eV) 
   0   1.0000     -13.855759      -377.0344 
   1   1.0000      -9.801476      -266.7117 
   2   1.0000      -9.801337      -266.7079 
   3   1.0000      -9.801137      -266.7025 
   4   1.0000      -9.762934      -265.6629 
   5   1.0000      -9.762928      -265.6628 
   6   1.0000      -9.762787      -265.6589 
   7   1.0000      -9.762785      -265.6589 
   8   1.0000      -9.762701      -265.6566 
   9   1.0000      -9.762700      -265.6566 
  10   1.0000      -9.755869      -265.4707 
  11   1.0000      -9.755724      -265.4667 
  12   1.0000      -9.755429      -265.4587 
  13   1.0000      -9.749102      -265.2865 
  14   1.0000      -9.749058      -265.2853 
  15   1.0000      -9.749026      -265.2845 
  16   1.0000      -9.748446      -265.2687 
  17   1.0000      -9.748315      -265.2651 
  18   1.0000      -9.748260      -265.2637 
  19   1.0000      -9.740039      -265.0399 
  20   1.0000      -9.739660      -265.0296 
  21   1.0000      -9.739410      -265.0228 
  22   1.0000      -9.735945      -264.9285 
  23   1.0000      -9.735395      -264.9136 
  24   1.0000      -9.735281      -264.9105 
  25   1.0000      -9.734869      -264.8992 
  26   1.0000      -9.734507      -264.8894 
  27   1.0000      -9.734238      -264.8821 
  28   1.0000      -0.729722       -19.8567 
  29   1.0000      -0.667544       -18.1648 
  30   1.0000      -0.652387       -17.7524 
  31   1.0000      -0.652326       -17.7507 
  32   1.0000      -0.609388       -16.5823 
  33   1.0000      -0.598212       -16.2782 
  34   1.0000      -0.598039       -16.2735 
  35   1.0000      -0.582510       -15.8509 
  36   1.0000      -0.582423       -15.8485 
  37   1.0000      -0.545796       -14.8519 
  38   1.0000      -0.521615       -14.1939 
  39   1.0000      -0.521584       -14.1930 
  40   1.0000      -0.519001       -14.1227 
  41   1.0000      -0.516005       -14.0412 
  42   1.0000      -0.515659       -14.0318 
  43   1.0000      -0.501966       -13.6592 
  44   1.0000      -0.444696       -12.1008 
  45   1.0000      -0.444614       -12.0986 
  46   1.0000      -0.423886       -11.5345 
  47   1.0000      -0.405296       -11.0287 
  48   1.0000      -0.405265       -11.0278 
  49   1.0000      -0.400327       -10.8934 
  50   1.0000      -0.397596       -10.8191 
  51   1.0000      -0.384053       -10.4506 
  52   1.0000      -0.384031       -10.4500 
  53   1.0000      -0.358454        -9.7540 
  54   1.0000      -0.358041        -9.7428 
  55   1.0000      -0.357872        -9.7382 
  56   1.0000      -0.346513        -9.4291 
  57   1.0000      -0.312911        -8.5148 
  58   1.0000      -0.309027        -8.4091 
  59   1.0000      -0.308890        -8.4053 
  60   1.0000      -0.301304        -8.1989 
  61   1.0000      -0.301259        -8.1977 
  62   1.0000      -0.282106        -7.6765 
  63   1.0000      -0.279286        -7.5998 
  64   1.0000      -0.279235        -7.5984 
  65   1.0000      -0.275716        -7.5026 
  66   1.0000      -0.275682        -7.5017 
  67   1.0000      -0.242704        -6.6043 
  68   1.0000      -0.242653        -6.6029 
  69   1.0000      -0.238276        -6.4838 
  70   1.0000      -0.231124        -6.2892 
  71   1.0000      -0.228479        -6.2172 
  72   1.0000      -0.226357        -6.1595 
  73   1.0000      -0.226271        -6.1572 
  74   1.0000      -0.212490        -5.7822 
  75   1.0000      -0.212456        -5.7812 
  76   1.0000      -0.210171        -5.7191 
  77   1.0000      -0.197060        -5.3623 
  78   1.0000      -0.190649        -5.1878 
  79   1.0000      -0.190618        -5.1870 
  80   1.0000      -0.179320        -4.8795 
  81   1.0000      -0.179306        -4.8792 
  82   1.0000      -0.171479        -4.6662 
  83   1.0000      -0.166803        -4.5390 
  84   1.0000      -0.166783        -4.5384 
  85   1.0000      -0.161140        -4.3848 
  86   1.0000      -0.158708        -4.3187 
  87   1.0000      -0.156251        -4.2518 
  88   1.0000      -0.156181        -4.2499 
  89   1.0000      -0.146959        -3.9990 
  90   1.0000      -0.146918        -3.9978 
  91   1.0000      -0.135132        -3.6771 
  92   1.0000      -0.119949        -3.2640 
  93   1.0000      -0.119865        -3.2617 
  94   1.0000      -0.095566        -2.6005 
  95   1.0000      -0.095562        -2.6004 
  96   1.0000      -0.092642        -2.5209 
  97   1.0000      -0.077106        -2.0982 
  98   1.0000      -0.059055        -1.6070 
  99   1.0000      -0.056856        -1.5471 
 100   1.0000      -0.056560        -1.5391 
 101   1.0000       0.001993         0.0542 
 102   1.0000       0.047248         1.2857 
 103   1.0000       0.047617         1.2957 
 104   0.0000       0.096875         2.6361 
 105   0.0000       0.113784         3.0962 
 106   0.0000       0.116289         3.1644 
 107   0.0000       0.117217         3.1896 
 108   0.0000       0.124499         3.3878 
 109   0.0000       0.124866         3.3978 
 110   0.0000       0.126549         3.4436 
 111   0.0000       0.130594         3.5536 
 112   0.0000       0.131182         3.5696 
 113   0.0000       0.141487         3.8501 
 114   0.0000       0.141859         3.8602 
 115   0.0000       0.143837         3.9140 
 116   0.0000       0.150339         4.0909 
 117   0.0000       0.151091         4.1114 
 118   0.0000       0.153167         4.1679 
 119   0.0000       0.155459         4.2303 
 120   0.0000       0.179002         4.8709 
 121   0.0000       0.180224         4.9041 
 122   0.0000       0.184326         5.0158 
 123   0.0000       0.184521         5.0211 
 124   0.0000       0.184808         5.0289 
 125   0.0000       0.185435         5.0460 
 126   0.0000       0.193270         5.2591 
 127   0.0000       0.194129         5.2825 
 128   0.0000       0.195919         5.3312 
 129   0.0000       0.228120         6.2075 
 130   0.0000       0.228473         6.2171 
 131   0.0000       0.229996         6.2585 
 132   0.0000       0.239756         6.5241 
 133   0.0000       0.246455         6.7064 
 134   0.0000       0.249882         6.7996 
 135   0.0000       0.249956         6.8017 
 136   0.0000       0.251908         6.8548 
 137   0.0000       0.252394         6.8680 
 138   0.0000       0.275216         7.4890 
 139   0.0000       0.277223         7.5436 
 140   0.0000       0.277366         7.5475 
 141   0.0000       0.283623         7.7178 
 142   0.0000       0.283970         7.7272 
 143   0.0000       0.292218         7.9517 
 144   0.0000       0.292684         7.9643 
 145   0.0000       0.292797         7.9674 
 146   0.0000       0.296753         8.0751 
 147   0.0000       0.297228         8.0880 
 148   0.0000       0.297625         8.0988 
 149   0.0000       0.299478         8.1492 
 150   0.0000       0.308360         8.3909 
 151   0.0000       0.308541         8.3958 
 152   0.0000       0.311235         8.4691 
 153   0.0000       0.311738         8.4828 
 154   0.0000       0.313957         8.5432 
 155   0.0000       0.327452         8.9104 
 156   0.0000       0.331905         9.0316 
 157   0.0000       0.332143         9.0381 
 158   0.0000       0.340899         9.2763 
 159   0.0000       0.343683         9.3521 
 160   0.0000       0.344058         9.3623 
 161   0.0000       0.355052         9.6615 
 162   0.0000       0.355446         9.6722 
 163   0.0000       0.356786         9.7086 
 164   0.0000       0.366215         9.9652 
 165   0.0000       0.372320        10.1313 
 166   0.0000       0.373390        10.1605 
 167   0.0000       0.373792        10.1714 
 168   0.0000       0.381859        10.3909 
 169   0.0000       0.382134        10.3984 
 170   0.0000       0.382672        10.4130 
 171   0.0000       0.388741        10.5782 
 172   0.0000       0.389655        10.6030 
 173   0.0000       0.389925        10.6104 
 174   0.0000       0.392795        10.6885 
 175   0.0000       0.393410        10.7052 
 176   0.0000       0.394490        10.7346 
 177   0.0000       0.397114        10.8060 
 178   0.0000       0.398302        10.8383 
 179   0.0000       0.410679        11.1752 
 180   0.0000       0.411669        11.2021 
 181   0.0000       0.413568        11.2538 
 182   0.0000       0.427321        11.6280 
 183   0.0000       0.427959        11.6454 
 184   0.0000       0.428516        11.6605 
 185   0.0000       0.428908        11.6712 
 186   0.0000       0.429245        11.6804 
 187   0.0000       0.431736        11.7481 
 188   0.0000       0.432397        11.7661 
 189   0.0000       0.434021        11.8103 
 190   0.0000       0.436621        11.8811 
 191   0.0000       0.437958        11.9175 
 192   0.0000       0.438402        11.9295 
 193   0.0000       0.451068        12.2742 
 194   0.0000       0.460473        12.5301 
 195   0.0000       0.461256        12.5514 
 196   0.0000       0.467370        12.7178 
 197   0.0000       0.470964        12.8156 
 198   0.0000       0.471445        12.8287 
 199   0.0000       0.472618        12.8606 
 200   0.0000       0.482373        13.1260 
 201   0.0000       0.483276        13.1506 
 202   0.0000       0.498514        13.5653 
 203   0.0000       0.507975        13.8227 
 204   0.0000       0.509330        13.8596 
 205   0.0000       0.510932        13.9032 
 206   0.0000       0.515805        14.0358 
 207   0.0000       0.516526        14.0554 
 208   0.0000       0.527218        14.3463 
 209   0.0000       0.534967        14.5572 
 210   0.0000       0.535928        14.5833 
 211   0.0000       0.536795        14.6069 
 212   0.0000       0.541633        14.7386 
 213   0.0000       0.546954        14.8834 
 214   0.0000       0.547772        14.9056 
 215   0.0000       0.551273        15.0009 
 216   0.0000       0.558048        15.1853 
 217   0.0000       0.558952        15.2098 
 218   0.0000       0.559393        15.2219 
 219   0.0000       0.575586        15.6625 
 220   0.0000       0.579453        15.7677 
 221   0.0000       0.580409        15.7937 
 222   0.0000       0.590262        16.0618 
 223   0.0000       0.591266        16.0892 
 224   0.0000       0.599974        16.3261 
 225   0.0000       0.603032        16.4093 
 226   0.0000       0.604281        16.4433 
 227   0.0000       0.607937        16.5428 
 228   0.0000       0.616333        16.7713 
 229   0.0000       0.617815        16.8116 
 230   0.0000       0.619391        16.8545 
 231   0.0000       0.620370        16.8811 
 232   0.0000       0.621278        16.9058 
 233   0.0000       0.622907        16.9502 
 234   0.0000       0.624207        16.9855 
 235   0.0000       0.625285        17.0149 
 236   0.0000       0.634031        17.2529 
 237   0.0000       0.644418        17.5355 
 238   0.0000       0.645002        17.5514 
 239   0.0000       0.646666        17.5967 
 240   0.0000       0.657782        17.8992 
 241   0.0000       0.658250        17.9119 
 242   0.0000       0.664306        18.0767 
 243   0.0000       0.679077        18.4786 
 244   0.0000       0.697545        18.9812 
 245   0.0000       0.698715        19.0130 
 246   0.0000       0.702632        19.1196 
 247   0.0000       0.703376        19.1398 
 248   0.0000       0.708308        19.2740 
 249   0.0000       0.713686        19.4204 
 250   0.0000       0.714148        19.4330 
 251   0.0000       0.714596        19.4451 
 252   0.0000       0.729908        19.8618 
 253   0.0000       0.736003        20.0277 
 254   0.0000       0.737393        20.0655 
 255   0.0000       0.737792        20.0763 
 256   0.0000       0.745026        20.2732 
 257   0.0000       0.746079        20.3018 
 258   0.0000       0.757614        20.6157 
 259   0.0000       0.758316        20.6348 
 260   0.0000       0.761075        20.7099 
 261   0.0000       0.761447        20.7200 
 262   0.0000       0.762011        20.7354 
 263   0.0000       0.779259        21.2047 
 264   0.0000       0.812104        22.0985 
 265   0.0000       0.828107        22.5339 
 266   0.0000       0.852541        23.1988 
 267   0.0000       0.853160        23.2157 
 268   0.0000       0.856914        23.3178 
 269   0.0000       0.857265        23.3274 
 270   0.0000       0.895993        24.3812 
 271   0.0000       0.898458        24.4483 
 272   0.0000       0.906267        24.6608 
 273   0.0000       0.907970        24.7071 
 274   0.0000       0.915941        24.9240 
 275   0.0000       0.923224        25.1222 
 276   0.0000       0.924498        25.1569 
 277   0.0000       0.942306        25.6414 
 278   0.0000       0.950966        25.8771 
 279   0.0000       0.951711        25.8974 
 280   0.0000       0.956236        26.0205 
 281   0.0000       0.958047        26.0698 
 282   0.0000       0.958511        26.0824 
 283   0.0000       0.961346        26.1596 
 284   0.0000       0.964711        26.2511 
 285   0.0000       0.965645        26.2765 
 286   0.0000       0.984347        26.7854 
 287   0.0000       1.007503        27.4156 
 288   0.0000       1.010760        27.5042 
 289   0.0000       1.011357        27.5204 
 290   0.0000       1.016065        27.6485 
 291   0.0000       1.017203        27.6795 
 292   0.0000       1.018108        27.7041 
 293   0.0000       1.030033        28.0286 
 294   0.0000       1.030367        28.0377 
 295   0.0000       1.039866        28.2962 
 296   0.0000       1.040240        28.3064 
 297   0.0000       1.041458        28.3395 
 298   0.0000       1.046307        28.4715 
 299   0.0000       1.046748        28.4835 
 300   0.0000       1.054565        28.6962 
 301   0.0000       1.060172        28.8487 
 302   0.0000       1.060716        28.8636 
 303   0.0000       1.061059        28.8729 
 304   0.0000       1.067002        29.0346 
 305   0.0000       1.067211        29.0403 
 306   0.0000       1.070424        29.1277 
 307   0.0000       1.088317        29.6146 
 308   0.0000       1.095143        29.8004 
 309   0.0000       1.096366        29.8336 
 310   0.0000       1.125052        30.6142 
 311   0.0000       1.131044        30.7773 
 312   0.0000       1.131607        30.7926 
 313   0.0000       1.132494        30.8167 
 314   0.0000       1.135564        30.9003 
 315   0.0000       1.135712        30.9043 
 316   0.0000       1.139971        31.0202 
 317   0.0000       1.140895        31.0453 
 318   0.0000       1.142314        31.0839 
 319   0.0000       1.146400        31.1951 
 320   0.0000       1.147073        31.2134 
 321   0.0000       1.148553        31.2537 
 322   0.0000       1.148883        31.2627 
 323   0.0000       1.153483        31.3879 
 324   0.0000       1.154101        31.4047 
 325   0.0000       1.154299        31.4101 
 326   0.0000       1.155046        31.4304 
 327   0.0000       1.160496        31.5787 
 328   0.0000       1.161443        31.6045 
 329   0.0000       1.170324        31.8461 
 330   0.0000       1.204163        32.7669 
 331   0.0000       1.204918        32.7875 
 332   0.0000       1.205589        32.8058 
 333   0.0000       1.206185        32.8220 
 334   0.0000       1.208950        32.8972 
 335   0.0000       1.209190        32.9037 
 336   0.0000       1.214555        33.0497 
 337   0.0000       1.214905        33.0592 
 338   0.0000       1.215495        33.0753 
 339   0.0000       1.216372        33.0992 
 340   0.0000       1.233106        33.5545 
 341   0.0000       1.234033        33.5797 
 342   0.0000       1.249620        34.0039 
 343   0.0000       1.270430        34.5702 
 344   0.0000       1.279517        34.8174 
 345   0.0000       1.279695        34.8223 
 346   0.0000       1.282267        34.8923 
 347   0.0000       1.290238        35.1092 
 348   0.0000       1.293672        35.2026 
 349   0.0000       1.295349        35.2482 
 350   0.0000       1.306971        35.5645 
 351   0.0000       1.308434        35.6043 
 352   0.0000       1.313624        35.7455 
 353   0.0000       1.327711        36.1289 
 354   0.0000       1.330493        36.2046 
 355   0.0000       1.331346        36.2278 
 356   0.0000       1.368477        37.2381 
 357   0.0000       1.368778        37.2463 
 358   0.0000       1.381922        37.6040 
 359   0.0000       1.384846        37.6836 
 360   0.0000       1.385316        37.6964 
 361   0.0000       1.402686        38.1690 
 362   0.0000       1.404268        38.2121 
 363   0.0000       1.404924        38.2299 
 364   0.0000       1.411775        38.4164 
 365   0.0000       1.428790        38.8794 
 366   0.0000       1.429483        38.8982 
 367   0.0000       1.438145        39.1339 
 368   0.0000       1.440394        39.1951 
 369   0.0000       1.441065        39.2134 
 370   0.0000       1.454906        39.5900 
 371   0.0000       1.455563        39.6079 
 372   0.0000       1.464082        39.8397 
 373   0.0000       1.485151        40.4130 
 374   0.0000       1.486651        40.4538 
 375   0.0000       1.487673        40.4816 
 376   0.0000       1.496938        40.7337 
 377   0.0000       1.497224        40.7415 
 378   0.0000       1.498156        40.7669 
 379   0.0000       1.505632        40.9703 
 380   0.0000       1.507462        41.0201 
 381   0.0000       1.507513        41.0215 
 382   0.0000       1.511536        41.1310 
 383   0.0000       1.518432        41.3186 
 384   0.0000       1.518854        41.3301 
 385   0.0000       1.530649        41.6511 
 386   0.0000       1.532908        41.7125 
 387   0.0000       1.533422        41.7265 
 388   0.0000       1.539599        41.8946 
 389   0.0000       1.540157        41.9098 
 390   0.0000       1.540554        41.9206 
 391   0.0000       1.553866        42.2828 
 392   0.0000       1.565232        42.5921 
 393   0.0000       1.565576        42.6015 
 394   0.0000       1.566238        42.6195 
 395   0.0000       1.571525        42.7634 
 396   0.0000       1.571815        42.7713 
 397   0.0000       1.583278        43.0832 
 398   0.0000       1.598608        43.5003 
 399   0.0000       1.598785        43.5051 
 400   0.0000       1.611925        43.8627 
 401   0.0000       1.615390        43.9570 
 402   0.0000       1.616386        43.9841 
 403   0.0000       1.621115        44.1128 
 404   0.0000       1.641863        44.6774 
 405   0.0000       1.645366        44.7727 
 406   0.0000       1.650901        44.9233 
 407   0.0000       1.651536        44.9406 
 408   0.0000       1.662544        45.2401 
 409   0.0000       1.662816        45.2475 
 410   0.0000       1.668250        45.3954 
 411   0.0000       1.668862        45.4120 
 412   0.0000       1.686174        45.8831 
 413   0.0000       1.686475        45.8913 
 414   0.0000       1.687971        45.9320 
 415   0.0000       1.688095        45.9354 
 416   0.0000       1.688358        45.9426 
 417   0.0000       1.707981        46.4765 
 418   0.0000       1.731456        47.1153 
 419   0.0000       1.731903        47.1275 
 420   0.0000       1.735921        47.2368 
 421   0.0000       1.744543        47.4714 
 422   0.0000       1.745031        47.4847 
 423   0.0000       1.749907        47.6174 
 424   0.0000       1.752616        47.6911 
 425   0.0000       1.752923        47.6995 
 426   0.0000       1.763232        47.9800 
 427   0.0000       1.763600        47.9900 
 428   0.0000       1.781216        48.4693 
 429   0.0000       1.801029        49.0085 
 430   0.0000       1.801637        49.0250 
 431   0.0000       1.806754        49.1643 
 432   0.0000       1.807132        49.1746 
 433   0.0000       1.812346        49.3164 
 434   0.0000       1.812436        49.3189 
 435   0.0000       1.819342        49.5068 
 436   0.0000       1.819577        49.5132 
 437   0.0000       1.825160        49.6651 
 438   0.0000       1.832218        49.8572 
 439   0.0000       1.832617        49.8681 
 440   0.0000       1.835668        49.9511 
 441   0.0000       1.840516        50.0830 
 442   0.0000       1.841056        50.0977 
 443   0.0000       1.851125        50.3717 
 444   0.0000       1.855617        50.4939 
 445   0.0000       1.856124        50.5077 
 446   0.0000       1.857526        50.5458 
 447   0.0000       1.858005        50.5589 
 448   0.0000       1.858605        50.5752 
 449   0.0000       1.870029        50.8861 
 450   0.0000       1.905728        51.8575 
 451   0.0000       1.905892        51.8619 
 452   0.0000       1.907013        51.8925 
 453   0.0000       1.926022        52.4097 
 454   0.0000       1.930493        52.5314 
 455   0.0000       1.933229        52.6058 
 456   0.0000       1.939631        52.7800 
 457   0.0000       1.939753        52.7834 
 458   0.0000       1.943563        52.8870 
 459   0.0000       1.944423        52.9104 
 460   0.0000       1.950700        53.0812 
 461   0.0000       1.950958        53.0883 
 462   0.0000       1.967094        53.5273 
 463   0.0000       1.969211        53.5849 
 464   0.0000       1.971134        53.6373 
 465   0.0000       1.971393        53.6443 
 466   0.0000       1.993256        54.2392 
 467   0.0000       1.997190        54.3463 
 468   0.0000       1.997604        54.3576 
 469   0.0000       2.006930        54.6114 
 470   0.0000       2.007379        54.6236 
 471   0.0000       2.015047        54.8322 
 472   0.0000       2.017014        54.8857 
 473   0.0000       2.017419        54.8968 
 474   0.0000       2.024123        55.0792 
 475   0.0000       2.032648        55.3112 
 476   0.0000       2.033354        55.3304 
 477   0.0000       2.039799        55.5057 
 478   0.0000       2.039892        55.5083 
 479   0.0000       2.043221        55.5989 
 480   0.0000       2.052372        55.8479 
 481   0.0000       2.053318        55.8736 
 482   0.0000       2.069158        56.3047 
 483   0.0000       2.081846        56.6499 
 484   0.0000       2.084625        56.7255 
 485   0.0000       2.086890        56.7872 
 486   0.0000       2.087270        56.7975 
 487   0.0000       2.105544        57.2948 
 488   0.0000       2.105689        57.2987 
 489   0.0000       2.110417        57.4274 
 490   0.0000       2.118515        57.6477 
 491   0.0000       2.118962        57.6599 
 492   0.0000       2.124728        57.8168 
 493   0.0000       2.126109        57.8544 
 494   0.0000       2.126475        57.8643 
 495   0.0000       2.151126        58.5351 
 496   0.0000       2.162861        58.8544 
 497   0.0000       2.179121        59.2969 
 498   0.0000       2.179515        59.3076 
 499   0.0000       2.193321        59.6833 
 500   0.0000       2.209599        60.1262 
 501   0.0000       2.213404        60.2298 
 502   0.0000       2.213597        60.2350 
 503   0.0000       2.224220        60.5241 
 504   0.0000       2.224857        60.5414 
 505   0.0000       2.225161        60.5497 
 506   0.0000       2.229366        60.6641 
 507   0.0000       2.229693        60.6730 
 508   0.0000       2.250371        61.2357 
 509   0.0000       2.250745        61.2459 
 510   0.0000       2.274332        61.8877 
 511   0.0000       2.275179        61.9108 
 512   0.0000       2.290848        62.3372 
 513   0.0000       2.296146        62.4813 
 514   0.0000       2.307620        62.7935 
 515   0.0000       2.308041        62.8050 
 516   0.0000       2.314099        62.9698 
 517   0.0000       2.326289        63.3015 
 518   0.0000       2.347850        63.8882 
 519   0.0000       2.348189        63.8975 
 520   0.0000       2.358906        64.1891 
 521   0.0000       2.359363        64.2015 
 522   0.0000       2.359829        64.2142 
 523   0.0000       2.395059        65.1729 
 524   0.0000       2.395770        65.1922 
 525   0.0000       2.417671        65.7882 
 526   0.0000       2.423890        65.9574 
 527   0.0000       2.423919        65.9582 
 528   0.0000       2.426357        66.0245 
 529   0.0000       2.435523        66.2740 
 530   0.0000       2.435898        66.2842 
 531   0.0000       2.446275        66.5665 
 532   0.0000       2.456668        66.8493 
 533   0.0000       2.456847        66.8542 
 534   0.0000       2.468076        67.1598 
 535   0.0000       2.468280        67.1653 
 536   0.0000       2.474027        67.3217 
 537   0.0000       2.479419        67.4684 
 538   0.0000       2.511184        68.3328 
 539   0.0000       2.511872        68.3515 
 540   0.0000       2.522318        68.6358 
 541   0.0000       2.550418        69.4004 
 542   0.0000       2.564630        69.7871 
 543   0.0000       2.565263        69.8044 
 544   0.0000       2.584117        70.3174 
 545   0.0000       2.588165        70.4276 
 546   0.0000       2.599941        70.7480 
 547   0.0000       2.600243        70.7562 
 548   0.0000       2.616711        71.2043 
 549   0.0000       2.617240        71.2187 
 550   0.0000       2.632845        71.6434 
 551   0.0000       2.633225        71.6537 
 552   0.0000       2.633322        71.6563 
 553   0.0000       2.671406        72.6927 
 554   0.0000       2.682604        72.9974 
 555   0.0000       2.694641        73.3249 
 556   0.0000       2.695082        73.3369 
 557   0.0000       2.739677        74.5504 
 558   0.0000       2.745219        74.7012 
 559   0.0000       2.747784        74.7710 
[...]
 522( 0) :     2.359831 a.u.    64.214 eV
 523( 0) :     2.395059 a.u.    65.173 eV
 524( 0) :     2.395773 a.u.    65.192 eV
 525( 0) :     2.417674 a.u.    65.788 eV
 526( 0) :     2.423891 a.u.    65.957 eV
 527( 0) :     2.423922 a.u.    65.958 eV
 528( 0) :     2.426361 a.u.    66.025 eV
 529( 0) :     2.435524 a.u.    66.274 eV
 530( 0) :     2.435900 a.u.    66.284 eV
 531( 0) :     2.446276 a.u.    66.567 eV
 532( 0) :     2.456671 a.u.    66.849 eV
 533( 0) :     2.456850 a.u.    66.854 eV
 534( 0) :     2.468078 a.u.    67.160 eV
 535( 0) :     2.468282 a.u.    67.165 eV
 536( 0) :     2.474031 a.u.    67.322 eV
 537( 0) :     2.479417 a.u.    67.468 eV
 538( 0) :     2.511185 a.u.    68.333 eV
 539( 0) :     2.511874 a.u.    68.352 eV
 540( 0) :     2.522317 a.u.    68.636 eV
 541( 0) :     2.550421 a.u.    69.400 eV
 542( 0) :     2.564629 a.u.    69.787 eV
 543( 0) :     2.565261 a.u.    69.804 eV
 544( 0) :     2.584122 a.u.    70.318 eV
 545( 0) :     2.588157 a.u.    70.427 eV
 546( 0) :     2.599941 a.u.    70.748 eV
 547( 0) :     2.600242 a.u.    70.756 eV
 548( 0) :     2.616710 a.u.    71.204 eV
 549( 0) :     2.617238 a.u.    71.219 eV
 550( 0) :     2.632846 a.u.    71.643 eV
 551( 0) :     2.633224 a.u.    71.654 eV
 552( 0) :     2.633323 a.u.    71.656 eV
 553( 0) :     2.671407 a.u.    72.693 eV
 554( 0) :     2.682605 a.u.    72.997 eV
 555( 0) :     2.694641 a.u.    73.325 eV
 556( 0) :     2.695082 a.u.    73.337 eV
 557( 0) :     2.739681 a.u.    74.551 eV
 558( 0) :     2.745221 a.u.    74.701 eV
 559( 0) :     2.747786 a.u.    74.771 eV
 560( 0) :     2.747824 a.u.    74.772 eV
 561( 0) :     2.757748 a.u.    75.042 eV
 562( 0) :     2.757997 a.u.    75.049 eV
 563( 0) :     2.768220 a.u.    75.327 eV
 564( 0) :     2.768508 a.u.    75.335 eV
 565( 0) :     2.777240 a.u.    75.573 eV
 566( 0) :     2.785303 a.u.    75.792 eV
 567( 0) :     2.785699 a.u.    75.803 eV
 568( 0) :     2.791112 a.u.    75.950 eV
 569( 0) :     2.795690 a.u.    76.075 eV
 570( 0) :     2.796515 a.u.    76.097 eV
 571( 0) :     2.798684 a.u.    76.156 eV
 572( 0) :     2.818941 a.u.    76.707 eV
 573( 0) :     2.819333 a.u.    76.718 eV
 574( 0) :     2.856490 a.u.    77.729 eV
 575( 0) :     2.859559 a.u.    77.813 eV
 576( 0) :     2.860134 a.u.    77.828 eV
 577( 0) :     2.875571 a.u.    78.248 eV
 578( 0) :     2.875708 a.u.    78.252 eV
 579( 0) :     2.910551 a.u.    79.200 eV
 580( 0) :     2.911011 a.u.    79.213 eV
 581( 0) :     2.922581 a.u.    79.527 eV
 582( 0) :     2.923007 a.u.    79.539 eV
 583( 0) :     2.925600 a.u.    79.610 eV
 584( 0) :     2.933924 a.u.    79.836 eV
 585( 0) :     2.962952 a.u.    80.626 eV
 586( 0) :     2.963791 a.u.    80.649 eV
 587( 0) :     2.975130 a.u.    80.957 eV
 588( 0) :     2.985911 a.u.    81.251 eV
 589( 0) :     2.986939 a.u.    81.279 eV
 590( 0) :     3.062995 a.u.    83.348 eV
 591( 0) :     3.063359 a.u.    83.358 eV
 592( 0) :     3.067122 a.u.    83.461 eV
 593( 0) :     3.140656 a.u.    85.462 eV
 594( 0) :     3.799789 a.u.   103.398 eV
 595( 0) :     3.805550 a.u.   103.554 eV
 596( 0) :     3.836191 a.u.   104.388 eV
 597( 0) :     3.850200 a.u.   104.769 eV
 598( 0) :     3.886451 a.u.   105.756 eV
 599( 0) :     3.887378 a.u.   105.781 eV
 600( 0) :     5.167521 a.u.   140.615 eV
 601( 0) :     5.167627 a.u.   140.618 eV
 602( 0) :     5.176453 a.u.   140.858 eV
 603( 0) :     5.181867 a.u.   141.006 eV
 604( 0) :     5.182324 a.u.   141.018 eV
 605( 0) :     5.184884 a.u.   141.088 eV
 606( 0) :     5.280493 a.u.   143.690 eV
 607( 0) :     5.280609 a.u.   143.693 eV
 608( 0) :     5.285614 a.u.   143.829 eV
 609( 0) :     5.287444 a.u.   143.879 eV
 610( 0) :     5.287614 a.u.   143.883 eV
 611( 0) :     5.289547 a.u.   143.936 eV
 612( 0) :     5.298085 a.u.   144.168 eV
 613( 0) :     5.298473 a.u.   144.179 eV
 614( 0) :     5.300834 a.u.   144.243 eV
 615( 0) :     5.318779 a.u.   144.731 eV
 616( 0) :     5.319142 a.u.   144.741 eV
 617( 0) :     5.338273 a.u.   145.262 eV
 618( 0) :     5.371224 a.u.   146.158 eV
 619( 0) :     5.371871 a.u.   146.176 eV
 620( 0) :     5.383339 a.u.   146.488 eV
 621( 0) :     5.399190 a.u.   146.919 eV
 622( 0) :     5.399549 a.u.   146.929 eV
 623( 0) :     5.403006 a.u.   147.023 eV
 624( 0) :     5.416995 a.u.   147.404 eV
 625( 0) :     5.455680 a.u.   148.457 eV
 626( 0) :     5.456192 a.u.   148.471 eV
 627( 0) :     5.456306 a.u.   148.474 eV
 628( 0) :     5.486186 a.u.   149.287 eV
 629( 0) :     5.487589 a.u.   149.325 eV
 630( 0) :     5.487639 a.u.   149.326 eV
 631( 0) :     5.506846 a.u.   149.849 eV
 632( 0) :     5.519998 a.u.   150.207 eV
 633( 0) :     5.521423 a.u.   150.246 eV
 634( 0) :     5.545966 a.u.   150.913 eV
 635( 0) :     5.546262 a.u.   150.921 eV
 636( 0) :     5.557278 a.u.   151.221 eV
 637( 0) :     5.585574 a.u.   151.991 eV
 638( 0) :     5.587695 a.u.   152.049 eV
 639( 0) :     5.588500 a.u.   152.071 eV
 640( 0) :     5.646945 a.u.   153.661 eV
 641( 0) :     5.648524 a.u.   153.704 eV
 642( 0) :     5.669285 a.u.   154.269 eV
 643( 0) :     5.729613 a.u.   155.911 eV
 644( 0) :     5.730303 a.u.   155.929 eV
 645( 0) :     5.745954 a.u.   156.355 eV
 646( 0) :     5.753076 a.u.   156.549 eV
 647( 0) :     5.758538 a.u.   156.698 eV
 648( 0) :     5.759320 a.u.   156.719 eV
 649( 0) :     5.839213 a.u.   158.893 eV
 650( 0) :     5.839557 a.u.   158.902 eV
 651( 0) :     5.894802 a.u.   160.406 eV
 652( 0) :     5.990219 a.u.   163.002 eV
 653( 0) :     5.990383 a.u.   163.007 eV
 654( 0) :     6.074655 a.u.   165.300 eV
 655( 0) :     6.075490 a.u.   165.322 eV
 656( 0) :     6.085698 a.u.   165.600 eV
 657( 0) :     6.096861 a.u.   165.904 eV
 658( 0) :     6.106674 a.u.   166.171 eV
 659( 0) :     6.107401 a.u.   166.191 eV
 660( 0) :     6.114948 a.u.   166.396 eV
 661( 0) :     6.115561 a.u.   166.413 eV
 662( 0) :     6.122049 a.u.   166.589 eV
 663( 0) :     7.460326 a.u.   203.006 eV
 664( 0) :    29.649826 a.u.   806.813 eV
 665( 0) :    29.717582 a.u.   808.657 eV
 666( 0) :    29.717814 a.u.   808.663 eV
 667( 0) :    29.782742 a.u.   810.430 eV
 668( 0) :    29.793178 a.u.   810.714 eV
 669( 0) :    29.793335 a.u.   810.718 eV
 670( 0) :    29.832270 a.u.   811.777 eV
 671( 0) :    30.009894 a.u.   816.611 eV
 672( 0) :    30.010315 a.u.   816.622 eV
 673( 0) :    30.019069 a.u.   816.860 eV
 674( 0) :    30.035424 a.u.   817.305 eV
 675( 0) :    30.041047 a.u.   817.458 eV
 676( 0) :    30.041443 a.u.   817.469 eV
 677( 0) :    30.108483 a.u.   819.293 eV
 678( 0) :    30.108613 a.u.   819.297 eV
 679( 0) :    30.148925 a.u.   820.394 eV
 680( 0) :    30.240136 a.u.   822.876 eV
 681( 0) :    30.240291 a.u.   822.880 eV
 682( 0) :    30.295762 a.u.   824.390 eV
 683( 0) :    30.295920 a.u.   824.394 eV
 684( 0) :    30.319136 a.u.   825.026 eV
 685( 0) :    30.321310 a.u.   825.085 eV
 686( 0) :    30.329103 a.u.   825.297 eV
 687( 0) :    30.329507 a.u.   825.308 eV
 688( 0) :    30.333802 a.u.   825.425 eV
 689( 0) :    30.338686 a.u.   825.558 eV
 690( 0) :    30.338913 a.u.   825.564 eV
 691( 0) :    36.673789 a.u.   997.945 eV
 692( 0) :    36.681897 a.u.   998.165 eV
 693( 0) :    36.682017 a.u.   998.168 eV
 694( 0) :    36.763984 a.u.  1000.399 eV
 695( 0) :    36.766076 a.u.  1000.456 eV
 696( 0) :    36.774604 a.u.  1000.688 eV
 697( 0) :    36.863052 a.u.  1003.095 eV
 698( 0) :    36.878807 a.u.  1003.523 eV
 699( 0) :    36.878982 a.u.  1003.528 eV
 700( 0) :    36.893305 a.u.  1003.918 eV
 701( 0) :    36.893403 a.u.  1003.921 eV
 702( 0) :    36.893476 a.u.  1003.923 eV
 703( 0) :    36.894481 a.u.  1003.950 eV
 704( 0) :    36.905513 a.u.  1004.250 eV
 705( 0) :    36.905880 a.u.  1004.260 eV
 706( 0) :    36.909024 a.u.  1004.346 eV
 707( 0) :    36.909179 a.u.  1004.350 eV
 708( 0) :    36.939104 a.u.  1005.164 eV
 709( 0) :    36.962168 a.u.  1005.792 eV
 710( 0) :    36.962238 a.u.  1005.794 eV
 711( 0) :    36.978825 a.u.  1006.245 eV
 712( 0) :    36.987443 a.u.  1006.480 eV
 713( 0) :    37.012470 a.u.  1007.161 eV
 714( 0) :    37.012780 a.u.  1007.169 eV
 715( 0) :    37.015758 a.u.  1007.250 eV
 716( 0) :    37.026646 a.u.  1007.546 eV
 717( 0) :    37.032292 a.u.  1007.700 eV
 718( 0) :    37.105308 a.u.  1009.687 eV
 719( 0) :    37.105794 a.u.  1009.700 eV
 720( 0) :    37.111691 a.u.  1009.860 eV
 721( 0) :    37.245731 a.u.  1013.508 eV
 722( 0) :    37.253967 a.u.  1013.732 eV
 723( 0) :    37.269612 a.u.  1014.158 eV
 724( 0) :    37.358761 a.u.  1016.584 eV
 725( 0) :    37.371258 a.u.  1016.924 eV
 726( 0) :    37.371758 a.u.  1016.937 eV
 727( 0) :    41.163185 a.u.  1120.107 eV
-------
TIMINGS
-------

Total SCF time: 0 days 0 hours 1 min 10 sec 

Total time                  ....      70.495 sec
Sum of individual times     ....      66.868 sec  ( 94.9%)

Fock matrix formation       ....      43.827 sec  ( 62.2%)
  Split-RI-J                ....      25.103 sec  ( 57.3% of F)
  XC integration            ....      11.618 sec  ( 26.5% of F)
    Basis function eval.    ....       0.387 sec  (  3.3% of XC)
    Density eval.           ....       0.996 sec  (  8.6% of XC)
    XC-Functional eval.     ....       0.060 sec  (  0.5% of XC)
    XC-Potential eval.      ....       1.329 sec  ( 11.4% of XC)
Diagonalization             ....       8.153 sec  ( 11.6%)
Density matrix formation    ....       0.678 sec  (  1.0%)
Population analysis         ....       4.343 sec  (  6.2%)
Initial guess               ....       0.774 sec  (  1.1%)
Orbital Transformation      ....       0.000 sec  (  0.0%)
Orbital Orthonormalization  ....       0.000 sec  (  0.0%)
DIIS solution               ....       6.067 sec  (  8.6%)
Grid generation             ....       3.025 sec  (  4.3%)

-------------------------   --------------------
FINAL SINGLE POINT ENERGY     -1103.168004383425
-------------------------   --------------------

   --->>> SOC part of D-tensor requested, so NeedSOC=true

                            ***************************************
                            *     ORCA property calculations      *
                            ***************************************

                                    ---------------------
                                    Active property flags
                                    ---------------------
   (+) Dipole Moment
   (+) D-tensor
   (+) Spin-Orbit Integrals are needed


------------------------------------------------------------------------------
                       ORCA ELECTRIC PROPERTIES CALCULATION
------------------------------------------------------------------------------

Dipole Moment Calculation                       ... on
Quadrupole Moment Calculation                   ... off
Polarizability Calculation                      ... off
GBWName                                         ... zfs.gbw
Electron density file                           ... zfs.scfp
The origin for moment calculation is the CENTER OF MASS  = (-0.000021,  0.000050 -3.167486)

-------------
DIPOLE MOMENT
-------------
                                X             Y             Z
Electronic contribution:      0.00092       0.00023       1.06706
Nuclear contribution   :      0.00111      -0.00365      -0.32886
                        -----------------------------------------
Total Dipole Moment    :      0.00203      -0.00342       0.73820
                        -----------------------------------------
Magnitude (a.u.)       :      0.73821
Magnitude (Debye)      :      1.87639



--------------------
Rotational spectrum 
--------------------
 
Rotational constants in cm-1:     0.009246     0.009141     0.009141 
Rotational constants in MHz :   277.183097   274.048600   274.045280 

 Dipole components along the rotational axes: 
x,y,z [a.u.] :     0.738206    -0.003338    -0.000686 
x,y,z [Debye]:     1.876370    -0.008485    -0.001743 

 


           ************************************************************
           *        Program running with 72 parallel MPI-processes    *
           *              working on a shared directory               *
           ************************************************************
------------------------------------------------------------------------------
                         ORCA SPIN-ORBIT COUPLING CALCULATION
------------------------------------------------------------------------------

GBW file                                    ... zfs.gbw
Input density                               ... zfs.scfp
Output integrals                            ... zfs
Operator type                               ... Mean-field/Effective potential
   One-Electron Terms                       ... 1
   Coulomb Contribution                     ... 2
   Exchange Contribution                    ... 3
   Correlation Contribution                 ... 0
   Maximum number of centers                ... 4
Setting up the integration grid             ... done
Evaluating density on the grid              ... (NumEl=  206.001863) done
Evaluating Coulomb term semi-analytically   ... done
One-Center Exchange (+SOO)                  ... done
Evaluating the spin-orbit operator          ... done
Total time for SOC: 67.612


           ************************************************************
           *        Program running with 72 parallel MPI-processes    *
           *              working on a shared directory               *
           ************************************************************
------------------------------------------------------------------------------
                                ORCA EPR/NMR CALCULATION
------------------------------------------------------------------------------

GBWName                      ... zfs.gbw
Electron density file        ... zfs.scfp
Spin density file            ... zfs.scfr
Spin-orbit integrals         ... zfs
Multiplicity                 ... 3
g-tensor                     ... 0
NMR chemical shifts          ... 0
D-tensor                     ... spin-spin and spin-orbit
D(SS)-algorithm              ... spin-density from UNOs
D(SOC)-algorithm             ... CP (=Coupled-perturbed)
Active orbitals for UNO spin density= 102 .. 103

Starting the spin-spin zero-field-splitting computation (UNO)...
                        ... done with spin-spin calculation

Starting the spin-orbit zero-field-splitting computation (CP)...
Transforming integrals                       ... Max(Pert)=   5.6110e-06
Warning: Perturbation too small - adjusting
Transforming integrals                       ... Max(Pert)=   6.1104e-05
Warning: Perturbation too small - adjusting
Transforming integrals                       ... Max(Pert)=   6.6542e-04
Warning: Perturbation too small - adjusting
Transforming integrals                       ... Max(Pert)=   7.2465e-03
done
    ... no HF exchange - skipping linear equations
ZFS-Tensor - using the prefactors
   -1/(4S**2) for same spin
    1/(2*S*(2*S-1)) for alpha->beta
    1/((S+1)*(2*S+1)) for beta->alpha
                        ... done with spin-orbit calculation

---------------------------
ZERO-FIELD-SPLITTING TENSOR
---------------------------

raw-matrix : 
   0.019975     0.000295     0.000010  
   0.000295     0.019920     0.000018  
   0.000010     0.000018     0.087121  

Tensor is right-handed
diagonalized D matrix : 
   0.019651     0.020244     0.087121  

   0.673613     0.739084     0.000154  
  -0.739084     0.673613     0.000268  
   0.000095    -0.000294     1.000000  


Direction X=1 Y=0 Z=2
D   =     0.067174  cm**-1
E/D =     0.004412

SPIN-SPIN-PART
                   0          1          2    
      0      -0.021862   0.000291   0.000001
      1       0.000291  -0.021911  -0.000000
      2       0.000001  -0.000000   0.043774
Exchange and Coulomb parts of SS (raw)
Coulomb
                   0          1          2    
      0      -0.012529  -0.003096   0.000047
      1      -0.003096  -0.019621   0.000005
      2       0.000047   0.000005   0.032149
Exchange
                   0          1          2    
      0      -0.009334   0.003387  -0.000047
      1       0.003387  -0.002291  -0.000005
      2      -0.000047  -0.000005   0.011625
One-, two-, three- and four-center SS contributions (raw)
One-Center            (AA|AA):
                   0          1          2    
      0      -0.001466  -0.000201   0.000075
      1      -0.000201  -0.001587   0.000019
      2       0.000075   0.000019   0.003053
Two-Center-Coulomb    (AA|BB):
                   0          1          2    
      0      -0.374970  -0.048568   0.000355
      1      -0.048568  -0.327239   0.000008
      2       0.000355   0.000008   0.702209
Two-Center-Exchange   (AB|BA):
                   0          1          2    
      0      -0.014498   0.000982  -0.000107
      1       0.000982  -0.015047  -0.000542
      2      -0.000107  -0.000542   0.029544
Two-Center-hybrid     (AA|AB):
                   0          1          2    
      0       0.001729   0.000820  -0.000602
      1       0.000820   0.001243  -0.000079
      2      -0.000602  -0.000079  -0.002971
Three-Center-Coulomb  (AA|BC):
                   0          1          2    
      0       0.646215   0.085193  -0.003583
      1       0.085193   0.558936  -0.004567
      2      -0.003583  -0.004567  -1.205152
Three-Center-Exchange (AB|AC):
                   0          1          2    
      0      -0.004630   0.000506   0.001636
      1       0.000506  -0.003207   0.002041
      2       0.001636   0.002041   0.007838
Four-Center           (AB|CD):
                   0          1          2    
      0      -0.274242  -0.038441   0.002227
      1      -0.038441  -0.235010   0.003120
      2       0.002227   0.003120   0.509252
ALPHA-PART
                   0          1          2    
      0      -0.113508   0.000008  -0.000001
      1       0.000008  -0.113506  -0.000010
      2      -0.000001  -0.000010  -0.108827
BETA-PART
                   0          1          2    
      0      -0.111411   0.000017   0.000004
      1       0.000017  -0.111417  -0.000008
      2       0.000004  -0.000008  -0.104859
ALPHA->BETA-PART
                   0          1          2    
      0       0.230146  -0.000015   0.000008
      1      -0.000015   0.230141   0.000036
      2       0.000008   0.000036   0.222822
BETA->ALPHA-PART
                   0          1          2    
      0       0.036611  -0.000006  -0.000002
      1      -0.000006   0.036613   0.000001
      2      -0.000002   0.000001   0.034212

Individual contributions (in cm**-1)
                                   D         E
SPIN-SPIN                  :   0.06566    0.00029
  Exchange vs Coulomb
  Coulomb                  :   0.04822   -0.00275
  Exchange                 :   0.01744    0.00305
  One through four center contributions:
  1-center                 :   0.00458   -0.00020
  2-center-Coulomb         :   1.05331   -0.05057
  2-center-Exchange        :   0.04432    0.00100
  2-center-Hybrid          :  -0.00446    0.00084
  3-center-Coulomb         :  -1.80773    0.08887
  3-center-Exchange        :   0.01176    0.00044
  4-center                 :   0.76388   -0.04009
SPIN-ORBIT                 :   0.00151    0.00000
SOMO->VMO  (alpha->alpha)  :   0.00468    0.00001
DOMO->SOMO (beta ->beta )  :   0.00655    0.00002
SOMO->SOMO (alpha->beta )  :  -0.00732   -0.00001
DOMO->VMO  (beta ->alpha)  :  -0.00240   -0.00001


Timings for individual modules:

Sum of individual times         ...      271.558 sec (=   4.526 min)
GTO integral calculation        ...       14.199 sec (=   0.237 min)   5.2 %
Spin-Orbit-Coupling Matrices    ...       67.602 sec (=   1.127 min)  24.9 %
SCF iterations                  ...       80.424 sec (=   1.340 min)  29.6 %
EPR/NMR calculation             ...      109.333 sec (=   1.822 min)  40.3 %
                             ****ORCA TERMINATED NORMALLY****
TOTAL RUN TIME: 0 days 0 hours 4 minutes 51 seconds 689 msec
