
                                 *****************
                                 * O   R   C   A *
                                 *****************

           --- An Ab Initio, DFT and Semiempirical electronic structure package ---

                  #######################################################
                  #                        -***-                        #
                  #          Department of theory and spectroscopy      #
                  #               Directorship: Frank Neese             #
                  #        Max Planck Institute fuer Kohlenforschung    #
                  #                Kaiser Wilhelm Platz 1               #
                  #                 D-45470 Muelheim/Ruhr               #
                  #                      Germany                        #
                  #                                                     #
                  #                  All rights reserved                #
                  #                        -***-                        #
                  #######################################################


                         Program Version 4.2.1 -  RELEASE  -


 With contributions from (in alphabetic order):
   Daniel Aravena         : Magnetic Suceptibility
   Michael Atanasov       : Ab Initio Ligand Field Theory (pilot matlab implementation)
   Alexander A. Auer      : GIAO ZORA, VPT2
   Ute Becker             : Parallelization
   Giovanni Bistoni       : ED, misc. LED, open-shell LED, HFLD
   Martin Brehm           : Molecular dynamics
   Dmytro Bykov           : SCF Hessian
   Vijay G. Chilkuri      : MRCI spin determinant printing, contributions to CSF-ICE
   Dipayan Datta          : RHF DLPNO-CCSD density
   Achintya Kumar Dutta   : EOM-CC, STEOM-CC
   Dmitry Ganyushin       : Spin-Orbit,Spin-Spin,Magnetic field MRCI
   Miquel Garcia          : C-PCM Hessian, Gaussian charge scheme
   Yang Guo               : DLPNO-NEVPT2, CIM, IAO-localization
   Andreas Hansen         : Spin unrestricted coupled pair/coupled cluster methods
   Benjamin Helmich-Paris : CASSCF linear response (MC-RPA)
   Lee Huntington         : MR-EOM, pCC
   Robert Izsak           : Overlap fitted RIJCOSX, COSX-SCS-MP3, EOM
   Christian Kollmar      : KDIIS, OOCD, Brueckner-CCSD(T), CCSD density
   Simone Kossmann        : Meta GGA functionals, TD-DFT gradient, OOMP2, MP2 Hessian
   Martin Krupicka        : AUTO-CI
   Lucas Lang             : DCDCAS
   Dagmar Lenk            : GEPOL surface, SMD
   Dimitrios Liakos       : Extrapolation schemes; Compound Job, initial MDCI parallelization
   Dimitrios Manganas     : Further ROCIS development; embedding schemes
   Dimitrios Pantazis     : SARC Basis sets
   Taras Petrenko         : DFT Hessian,TD-DFT gradient, ASA, ECA, R-Raman, ABS, FL, XAS/XES, NRVS
   Peter Pinski           : DLPNO-MP2, DLPNO-MP2 Gradient
   Christoph Reimann      : Effective Core Potentials
   Marius Retegan         : Local ZFS, SOC
   Christoph Riplinger    : Optimizer, TS searches, QM/MM, DLPNO-CCSD(T), (RO)-DLPNO pert. Triples
   Tobias Risthaus        : Range-separated hybrids, TD-DFT gradient, RPA, STAB
   Michael Roemelt        : Original ROCIS implementation
   Masaaki Saitow         : Open-shell DLPNO-CCSD energy and density
   Barbara Sandhoefer     : DKH picture change effects
   Avijit Sen             : IP-ROCIS
   Kantharuban Sivalingam : CASSCF convergence, NEVPT2, FIC-MRCI
   Bernardo de Souza      : ESD, SOC TD-DFT
   Georgi Stoychev        : AutoAux, RI-MP2 NMR
   Willem Van den Heuvel  : Paramagnetic NMR
   Boris Wezisla          : Elementary symmetry handling
   Frank Wennmohs         : Technical directorship


 We gratefully acknowledge several colleagues who have allowed us to
 interface, adapt or use parts of their codes:
   Stefan Grimme, W. Hujo, H. Kruse,             : VdW corrections, initial TS optimization,
                  C. Bannwarth                     DFT functionals, gCP, sTDA/sTD-DF
   Ed Valeev, F. Pavosevic, A. Kumar             : LibInt (2-el integral package), F12 methods
   Garnet Chan, S. Sharma, J. Yang, R. Olivares  : DMRG
   Ulf Ekstrom                                   : XCFun DFT Library
   Mihaly Kallay                                 : mrcc  (arbitrary order and MRCC methods)
   Andreas Klamt, Michael Diedenhofen            : otool_cosmo (COSMO solvation model)
   Jiri Pittner, Ondrej Demel                    : Mk-CCSD
   Frank Weinhold                                : gennbo (NPA and NBO analysis)
   Christopher J. Cramer and Donald G. Truhlar   : smd solvation model
   Lars Goerigk                                  : TD-DFT with DH, B97 family of functionals
   V. Asgeirsson, H. Jonsson                     : NEB implementation
   FAccTs GmbH                                   : IRC, NEB, NEB-TS, Multilevel, MM, QM/MM, CI optimization
   S Lehtola, MJT Oliveira, MAL Marques          : LibXC Library


 Your calculation uses the libint2 library for the computation of 2-el integrals
 For citations please refer to: http://libint.valeyev.net

 Your ORCA version has been built with support for libXC version: 4.2.3
 For citations please refer to: https://tddft.org/programs/libxc/

 This ORCA versions uses:
   CBLAS   interface :  Fast vector & matrix operations
   LAPACKE interface :  Fast linear algebra routines
   SCALAPACK package :  Parallel linear algebra routines




***************************************
The coordinates will be read from file: nv.xyz
***************************************


----- Orbital basis set information -----
Your calculation utilizes the basis: EPR-II
   V. Barone, in Recent Advances in Density Functional Methods, Part 1 (ed. D. P. Chong), World Scientific, Singapore, 1995, p. 287.

----- AuxJ basis set information -----
Your calculation utilizes the AutoAux generation procedure.
  G. L. Stoychev, A. A. Auer, F. Neese, J. Chem. Theory Comput. 13, 554 (2017)

----- AuxC basis set information -----
Your calculation utilizes the AutoAux generation procedure.
  G. L. Stoychev, A. A. Auer, F. Neese, J. Chem. Theory Comput. 13, 554 (2017)

----- AuxJK basis set information -----
Your calculation utilizes the AutoAux generation procedure.
  G. L. Stoychev, A. A. Auer, F. Neese, J. Chem. Theory Comput. 13, 554 (2017)

================================================================================
                                        WARNINGS
                       Please study these warnings very carefully!
================================================================================


WARNING: your system is open-shell and RHF/RKS was chosen
  ===> : WILL SWITCH to UHF/UKS


INFO   : the flag for use of LIBINT has been found!

================================================================================
                                       INPUT FILE
================================================================================
NAME = zfs.in
|  1> # Use EPR-II is a special basis set for epr, autoaux creates a large auxiliary basis
|  2> !PBE EPR-II AUTOAUX RIJCOSX
|  3> 
|  4> # use original (unoptimized) cluster xyz
|  5> *xyzfile -1 3 nv.xyz
|  6> 
|  7> # Parallelization
|  8> %PAL NPROCS 72 END
|  9> 
| 10> # ZFS calculation
| 11> %EPRNMR DTENSOR SSANDSO
| 12>     DSS     UNO
| 13>     DSOC    CP
| 14> END
| 15> 
| 16>                          ****END OF INPUT****
================================================================================

                       ****************************
                       * Single Point Calculation *
                       ****************************

---------------------------------
CARTESIAN COORDINATES (ANGSTROEM)
---------------------------------
  C      0.398508    1.487140   -2.249811
  C      1.406017    0.376805   -4.258023
  C     -2.052974    2.053125   -2.199697
  C     -0.751506   -2.804421   -2.199804
  C      2.804516    0.751454   -2.199700
  C     -2.418013    0.640453   -0.144983
  C      2.414259   -0.654461   -0.144986
  C     -1.773910   -1.763574   -0.145035
  C      1.763652    1.773841   -0.144933
  C     -0.640347    2.418045   -0.144931
  C      0.654364   -2.414284   -0.145037
  C      1.373435    0.367971    0.395617
  C     -0.368040   -1.373432    0.395566
  C     -1.005402    1.005433    0.395618
  C     -1.409460   -0.377548   -3.737621
  C      0.377716    1.409554   -3.737569
  C      1.031804   -1.031738   -3.737623
  C     -2.417023    0.640958   -1.693673
  C      2.413651   -0.653527   -1.693676
  C     -1.772817   -1.763452   -1.693726
  C      1.763575    1.772794   -1.693623
  C     -0.640807    2.417101   -1.693621
  C      0.653476   -2.413630   -1.693727
  C     -1.487090   -0.398380   -2.249865
  C      1.088618   -1.088598   -2.249867
  C     -1.029209    1.029378   -4.258021
  C     -0.376739   -1.405877   -4.258075
  N      0.000000    0.000000    0.000000
  H      2.382660    0.638466   -3.907906
  H      1.399098    0.374975   -5.328003
  H     -2.065381    2.065564   -3.269544
  H     -2.763783    2.763953   -1.833101
  H     -1.011080   -3.773083   -1.826663
  H     -0.757860   -2.828127   -3.269519
  H      2.821478    0.756022   -3.269548
  H      3.775520    1.011603   -1.833106
  H     -2.690458   -0.332367    0.207581
  H     -3.122421    1.366811    0.203028
  H      3.388291   -0.386728    0.207839
  H      2.154674   -1.632510    0.202756
  H     -2.029058   -2.740992    0.207753
  H     -2.491128   -1.049756    0.202744
  H      1.057392    2.496181    0.207668
  H      2.744904    2.020683    0.203076
  H     -1.359237    3.127705    0.207895
  H      0.336451    2.682251    0.202848
  H      1.633063   -2.163829    0.207562
  H      0.377514   -3.387508    0.202936
  H      1.385496    0.371178    1.465539
  H     -0.371279   -1.385524    1.465488
  H     -1.014241    1.014241    1.465541
  H     -2.380141   -0.637611   -4.105093
  H      0.637830    2.380235   -4.105005
  H      1.742377   -1.742330   -4.105096
  H     -3.396923    0.386074   -2.039696
  H      3.134798   -1.364244   -2.039701
  H     -2.748893   -2.032610   -2.039749
  H      2.032784    2.748868   -2.039611
  H     -0.385872    3.397001   -2.039609
  H      1.364172   -3.134797   -2.039752
  H     -1.024296    1.024496   -5.328007
  H     -1.744100    1.744288   -3.907684
  H     -0.638451   -2.382520   -3.907994
  H     -0.374878   -1.398927   -5.328055

----------------------------
CARTESIAN COORDINATES (A.U.)
----------------------------
  NO LB      ZA    FRAG     MASS         X           Y           Z
   0 C     6.0000    0    12.011    0.753072    2.810287   -4.251526
   1 C     6.0000    0    12.011    2.656987    0.712058   -8.046497
   2 C     6.0000    0    12.011   -3.879558    3.879844   -4.156825
   3 C     6.0000    0    12.011   -1.420141   -5.299588   -4.157026
   4 C     6.0000    0    12.011    5.299767    1.420042   -4.156831
   5 C     6.0000    0    12.011   -4.569383    1.210281   -0.273977
   6 C     6.0000    0    12.011    4.562289   -1.236752   -0.273984
   7 C     6.0000    0    12.011   -3.352203   -3.332672   -0.274077
   8 C     6.0000    0    12.011    3.332819    3.352074   -0.273883
   9 C     6.0000    0    12.011   -1.210081    4.569444   -0.273880
  10 C     6.0000    0    12.011    1.236568   -4.562335   -0.274081
  11 C     6.0000    0    12.011    2.595417    0.695364    0.747607
  12 C     6.0000    0    12.011   -0.695495   -2.595411    0.747512
  13 C     6.0000    0    12.011   -1.899934    1.899993    0.747611
  14 C     6.0000    0    12.011   -2.663493   -0.713462   -7.063080
  15 C     6.0000    0    12.011    0.713780    2.663672   -7.062982
  16 C     6.0000    0    12.011    1.949827   -1.949703   -7.063084
  17 C     6.0000    0    12.011   -4.567511    1.211235   -3.200578
  18 C     6.0000    0    12.011    4.561140   -1.234988   -3.200585
  19 C     6.0000    0    12.011   -3.350138   -3.332441   -3.200678
  20 C     6.0000    0    12.011    3.332673    3.350094   -3.200484
  21 C     6.0000    0    12.011   -1.210950    4.567658   -3.200481
  22 C     6.0000    0    12.011    1.234890   -4.561100   -3.200681
  23 C     6.0000    0    12.011   -2.810192   -0.752830   -4.251629
  24 C     6.0000    0    12.011    2.057190   -2.057152   -4.251633
  25 C     6.0000    0    12.011   -1.944924    1.945242   -8.046494
  26 C     6.0000    0    12.011   -0.711933   -2.656723   -8.046595
  27 N     7.0000    0    14.007    0.000000    0.000000    0.000000
  28 H     1.0000    0     1.008    4.502576    1.206526   -7.384872
  29 H     1.0000    0     1.008    2.643913    0.708601  -10.068467
  30 H     1.0000    0     1.008   -3.903004    3.903350   -6.178543
  31 H     1.0000    0     1.008   -5.222793    5.223115   -3.464060
  32 H     1.0000    0     1.008   -1.910664   -7.130094   -3.451893
  33 H     1.0000    0     1.008   -1.432148   -5.344385   -6.178495
  34 H     1.0000    0     1.008    5.331821    1.428675   -6.178550
  35 H     1.0000    0     1.008    7.134698    1.911653   -3.464069
  36 H     1.0000    0     1.008   -5.084228   -0.628083    0.392271
  37 H     1.0000    0     1.008   -5.900520    2.582898    0.383668
  38 H     1.0000    0     1.008    6.402942   -0.730811    0.392758
  39 H     1.0000    0     1.008    4.071744   -3.084998    0.383154
  40 H     1.0000    0     1.008   -3.834363   -5.179723    0.392597
  41 H     1.0000    0     1.008   -4.707550   -1.983751    0.383131
  42 H     1.0000    0     1.008    1.998181    4.717099    0.392436
  43 H     1.0000    0     1.008    5.187116    3.818537    0.383759
  44 H     1.0000    0     1.008   -2.568585    5.910506    0.392864
  45 H     1.0000    0     1.008    0.635800    5.068721    0.383326
  46 H     1.0000    0     1.008    3.086041   -4.089044    0.392235
  47 H     1.0000    0     1.008    0.713398   -6.401463    0.383494
  48 H     1.0000    0     1.008    2.618209    0.701426    2.769468
  49 H     1.0000    0     1.008   -0.701616   -2.618262    2.769372
  50 H     1.0000    0     1.008   -1.916638    1.916638    2.769471
  51 H     1.0000    0     1.008   -4.497814   -1.204910   -7.757501
  52 H     1.0000    0     1.008    1.205325    4.497993   -7.757336
  53 H     1.0000    0     1.008    3.292615   -3.292527   -7.757507
  54 H     1.0000    0     1.008   -6.419255    0.729575   -3.854467
  55 H     1.0000    0     1.008    5.923909   -2.578048   -3.854476
  56 H     1.0000    0     1.008   -5.194654   -3.841077   -3.854568
  57 H     1.0000    0     1.008    3.841406    5.194609   -3.854305
  58 H     1.0000    0     1.008   -0.729193    6.419401   -3.854302
  59 H     1.0000    0     1.008    2.577911   -5.923907   -3.854573
  60 H     1.0000    0     1.008   -1.935639    1.936016  -10.068475
  61 H     1.0000    0     1.008   -3.295871    3.296227   -7.384452
  62 H     1.0000    0     1.008   -1.206497   -4.502311   -7.385038
  63 H     1.0000    0     1.008   -0.708416   -2.643589  -10.068564

--------------------------------
INTERNAL COORDINATES (ANGSTROEM)
--------------------------------
 C      0   0   0     0.000000000000     0.00000000     0.00000000
 C      1   0   0     2.506159188795     0.00000000     0.00000000
 C      1   2   0     2.516468737686   120.47980034     0.00000000
 C      2   1   3     4.360203420518    75.28951497   283.77948097
 C      1   2   3     2.516468891122    60.13666439   174.71907255
 C      3   1   2     2.520068779661    91.79194710   121.28833101
 C      5   1   2     2.520068762494    91.79201995   236.05607763
 C      6   3   1     2.488818367778   120.26272269   304.19020213
 C      7   5   1     2.513948947832    60.08027953   306.41229826
 C      9   7   5     2.488817353269   120.00002879   109.82545097
 C      7   5   1     2.488816777140   120.26270157    55.80983232
 C      7   5   1     1.555934703024    91.16206222   325.68709313
 C      8   6   3     1.555934052158    89.52038814    91.06561731
 C      6   3   1     1.555934061084    91.16212213    34.31292444
 C      3   1   2     2.947455098681    65.88562637    32.41919377
 C      1   2   3     1.489925410400    35.15414083   323.08151360
 C      2   1   3     1.547529029969    92.09616878   273.73521379
 C      3   1   2     1.543634497483    91.74891422    85.78589530
 C      5   1   2     1.543634474604    91.74900366   271.55851521
 C      4   2   1     1.543634426407    89.43441788    30.89183770
 C      1   2   3     1.501448810412    90.89532351   191.81515951
 C      1   2   3     1.501449344959   148.15946932   329.09681934
 C      4   2   1     1.543633746259    61.29331668   278.87882688
 C     15   3   1     1.489925437933    58.60967734    79.25168918
 C     17   2   1     1.489925476692   111.18022712   326.95804084
 C     16   1   2     1.547528289706   111.18021292   121.75553486
 C     17   2   1     1.547528291780   109.09004225    89.92306832
 N     12   7   5     1.475886138825   111.44049747    93.52608412
 H      2   1   3     1.069990716709    89.79352600   164.26253072
 H      2   1   3     1.070004294794   143.07770559    40.86734296
 H      3   1   2     1.069991509783    89.65616669   336.17389650
 H      3   1   2     1.070008907516   143.45442869   213.40182390
 H      4   2   1     1.070008630929   160.93593849   213.27452138
 H      4   2   1     1.069996784564    63.07524132   143.53512798
 H     29   2   1     0.783506147776   144.53757488    32.14134811
 H      5   1   2     1.070008457529   143.45441155   143.94258782
 H      6   3   1     1.070002932258   144.60622172   267.56155986
 H      6   3   1     1.069998801664    88.85452189   143.28877489
 H      7   5   1     1.070001690105    89.32902230   216.43024004
 H      7   5   1     1.069995564359   144.34073002    91.60649887
 H      8   6   3     1.070002207838   145.14813579   215.49452434
 H     37   6   3     0.744581472034   143.67474243    62.06104376
 H      9   7   5     1.070002897603   145.37732649   145.27378858
 H      9   7   5     1.069998336824    89.16959390   270.84373776
 H     10   9   7     1.070002153494   145.14812964   144.76011293
 H     43   9   7     0.744581166634   143.67473630   300.54055368
 H     40   7   5     0.744581002806   145.51897274   298.58473543
 H     11   7   5     1.069998827360   145.69948101   144.51454586
 H     12   7   5     1.069995472818   109.98972401   211.05044889
 H     13   8   6     1.069995477091   109.98975805    90.79100389
 H     14   6   3     1.069995466051   109.98975816   148.94952883
 H     15   3   1     1.069995021142   100.46116415   182.87308404
 H     16   1   2     1.069995529901   106.99377722   240.87773465
 H     17   2   1     1.069995470952   109.17096217   209.14698708
 H     18   3   1     1.070001082972   109.14081204   209.46733766
 H     19   5   1     1.070001544608   109.14088145   150.53266271
 H     20   4   2     1.070001076553   109.14085338   120.92648835
 H     21   1   2     1.070001583658   106.41034516    92.35939566
 H     22   1   2     1.070001596190   106.41041643   291.94871453
 H     23   4   2     1.070001549185   109.14085332   258.30749266
 H     26  16   1     1.070008557449   109.46621822   177.47400830
 H     31   3   1     0.783365300063   143.60830335    31.99437321
 H     34   4   2     0.787701493808   142.83583394   341.07939130
 H     27  17   2     1.070004297033   109.46009777    59.54970980

---------------------------
INTERNAL COORDINATES (A.U.)
---------------------------
 C      0   0   0     0.000000000000     0.00000000     0.00000000
 C      1   0   0     4.735954514833     0.00000000     0.00000000
 C      1   2   0     4.755436738801   120.47980034     0.00000000
 C      2   1   3     8.239590352965    75.28951497   283.77948097
 C      1   2   3     4.755437028752    60.13666439   174.71907255
 C      3   1   2     4.762239832204    91.79194710   121.28833101
 C      5   1   2     4.762239799764    91.79201995   236.05607763
 C      6   3   1     4.703185112172   120.26272269   304.19020213
 C      7   5   1     4.750675026063    60.08027953   306.41229826
 C      9   7   5     4.703183195030   120.00002879   109.82545097
 C      7   5   1     4.703182106304   120.26270157    55.80983232
 C      7   5   1     2.940290470979    91.16206222   325.68709313
 C      8   6   3     2.940289241020    89.52038814    91.06561731
 C      6   3   1     2.940289257888    91.16212213    34.31292444
 C      3   1   2     5.569882928536    65.88562637    32.41919377
 C      1   2   3     2.815550985626    35.15414083   323.08151360
 C      2   1   3     2.924406050934    92.09616878   273.73521379
 C      3   1   2     2.917046451116    91.74891422    85.78589530
 C      5   1   2     2.917046407881    91.74900366   271.55851521
 C      4   2   1     2.917046316801    89.43441788    30.89183770
 C      1   2   3     2.837327055781    90.89532351   191.81515951
 C      1   2   3     2.837328065927   148.15946932   329.09681934
 C      4   2   1     2.917045031508    61.29331668   278.87882688
 C     15   3   1     2.815551037656    58.60967734    79.25168918
 C     17   2   1     2.815551110899   111.18022712   326.95804084
 C     16   1   2     2.924404652040   111.18021292   121.75553486
 C     17   2   1     2.924404655959   109.09004225    89.92306832
 N     12   7   5     2.789020607230   111.44049747    93.52608412
 H      2   1   3     2.021989420419    89.79352600   164.26253072
 H      2   1   3     2.022015079281   143.07770559    40.86734296
 H      3   1   2     2.021990919111    89.65616669   336.17389650
 H      3   1   2     2.022023796062   143.45442869   213.40182390
 H      4   2   1     2.022023273389   160.93593849   213.27452138
 H      4   2   1     2.022000887003    63.07524132   143.53512798
 H     29   2   1     1.480612043541   144.53757488    32.14134811
 H      5   1   2     2.022022945710   143.45441155   143.94258782
 H      6   3   1     2.022012504461   144.60622172   267.56155986
 H      6   3   1     2.022004698769    88.85452189   143.28877489
 H      7   5   1     2.022010157131    89.32902230   216.43024004
 H      7   5   1     2.021998581149   144.34073002    91.60649887
 H      8   6   3     2.022011135505   145.14813579   215.49452434
 H     37   6   3     1.407055066537   143.67474243    62.06104376
 H      9   7   5     2.022012438972   145.37732649   145.27378858
 H      9   7   5     2.022003820349    89.16959390   270.84373776
 H     10   9   7     2.022011032810   145.14812964   144.76011293
 H     43   9   7     1.407054489413   143.67473630   300.54055368
 H     40   7   5     1.407054179824   145.51897274   298.58473543
 H     11   7   5     2.022004747327   145.69948101   144.51454586
 H     12   7   5     2.021998408161   109.98972401   211.05044889
 H     13   8   6     2.021998416236   109.98975805    90.79100389
 H     14   6   3     2.021998395374   109.98975816   148.94952883
 H     15   3   1     2.021997554618   100.46116415   182.87308404
 H     16   1   2     2.021998516033   106.99377722   240.87773465
 H     17   2   1     2.021998404635   109.17096217   209.14698708
 H     18   3   1     2.022009009817   109.14081204   209.46733766
 H     19   5   1     2.022009882183   109.14088145   150.53266271
 H     20   4   2     2.022008997686   109.14085338   120.92648835
 H     21   1   2     2.022009955976   106.41034516    92.35939566
 H     22   1   2     2.022009979658   106.41041643   291.94871453
 H     23   4   2     2.022009890831   109.14085332   258.30749266
 H     26  16   1     2.022023134530   109.46621822   177.47400830
 H     31   3   1     1.480345879937   143.60830335    31.99437321
 H     34   4   2     1.488540098577   142.83583394   341.07939130
 H     27  17   2     2.022015083511   109.46009777    59.54970980

---------------------
BASIS SET INFORMATION
---------------------
There are 3 groups of distinct atoms

 Group   1 Type C   : 10s5p1d contracted to 6s2p1d pattern {511111/41/1}
 Group   2 Type N   : 10s5p1d contracted to 6s2p1d pattern {511111/41/1}
 Group   3 Type H   : 6s1p contracted to 4s1p pattern {3111/1}

Atom   0C    basis set group =>   1
Atom   1C    basis set group =>   1
Atom   2C    basis set group =>   1
Atom   3C    basis set group =>   1
Atom   4C    basis set group =>   1
Atom   5C    basis set group =>   1
Atom   6C    basis set group =>   1
Atom   7C    basis set group =>   1
Atom   8C    basis set group =>   1
Atom   9C    basis set group =>   1
Atom  10C    basis set group =>   1
Atom  11C    basis set group =>   1
Atom  12C    basis set group =>   1
Atom  13C    basis set group =>   1
Atom  14C    basis set group =>   1
Atom  15C    basis set group =>   1
Atom  16C    basis set group =>   1
Atom  17C    basis set group =>   1
Atom  18C    basis set group =>   1
Atom  19C    basis set group =>   1
Atom  20C    basis set group =>   1
Atom  21C    basis set group =>   1
Atom  22C    basis set group =>   1
Atom  23C    basis set group =>   1
Atom  24C    basis set group =>   1
Atom  25C    basis set group =>   1
Atom  26C    basis set group =>   1
Atom  27N    basis set group =>   2
Atom  28H    basis set group =>   3
Atom  29H    basis set group =>   3
Atom  30H    basis set group =>   3
Atom  31H    basis set group =>   3
Atom  32H    basis set group =>   3
Atom  33H    basis set group =>   3
Atom  34H    basis set group =>   3
Atom  35H    basis set group =>   3
Atom  36H    basis set group =>   3
Atom  37H    basis set group =>   3
Atom  38H    basis set group =>   3
Atom  39H    basis set group =>   3
Atom  40H    basis set group =>   3
Atom  41H    basis set group =>   3
Atom  42H    basis set group =>   3
Atom  43H    basis set group =>   3
Atom  44H    basis set group =>   3
Atom  45H    basis set group =>   3
Atom  46H    basis set group =>   3
Atom  47H    basis set group =>   3
Atom  48H    basis set group =>   3
Atom  49H    basis set group =>   3
Atom  50H    basis set group =>   3
Atom  51H    basis set group =>   3
Atom  52H    basis set group =>   3
Atom  53H    basis set group =>   3
Atom  54H    basis set group =>   3
Atom  55H    basis set group =>   3
Atom  56H    basis set group =>   3
Atom  57H    basis set group =>   3
Atom  58H    basis set group =>   3
Atom  59H    basis set group =>   3
Atom  60H    basis set group =>   3
Atom  61H    basis set group =>   3
Atom  62H    basis set group =>   3
Atom  63H    basis set group =>   3
---------------------------------
AUXILIARY/J BASIS SET INFORMATION
---------------------------------
There are 3 groups of distinct atoms

 Group   1 Type C   : 17s13p12d2f contracted to 17s13p12d2f pattern {11111111111111111/1111111111111/111111111111/11}
 Group   2 Type N   : 17s13p12d2f contracted to 17s13p12d2f pattern {11111111111111111/1111111111111/111111111111/11}
 Group   3 Type H   : 15s6p1d contracted to 15s6p1d pattern {111111111111111/111111/1}

Atom   0C    basis set group =>   1
Atom   1C    basis set group =>   1
Atom   2C    basis set group =>   1
Atom   3C    basis set group =>   1
Atom   4C    basis set group =>   1
Atom   5C    basis set group =>   1
Atom   6C    basis set group =>   1
Atom   7C    basis set group =>   1
Atom   8C    basis set group =>   1
Atom   9C    basis set group =>   1
Atom  10C    basis set group =>   1
Atom  11C    basis set group =>   1
Atom  12C    basis set group =>   1
Atom  13C    basis set group =>   1
Atom  14C    basis set group =>   1
Atom  15C    basis set group =>   1
Atom  16C    basis set group =>   1
Atom  17C    basis set group =>   1
Atom  18C    basis set group =>   1
Atom  19C    basis set group =>   1
Atom  20C    basis set group =>   1
Atom  21C    basis set group =>   1
Atom  22C    basis set group =>   1
Atom  23C    basis set group =>   1
Atom  24C    basis set group =>   1
Atom  25C    basis set group =>   1
Atom  26C    basis set group =>   1
Atom  27N    basis set group =>   2
Atom  28H    basis set group =>   3
Atom  29H    basis set group =>   3
Atom  30H    basis set group =>   3
Atom  31H    basis set group =>   3
Atom  32H    basis set group =>   3
Atom  33H    basis set group =>   3
Atom  34H    basis set group =>   3
Atom  35H    basis set group =>   3
Atom  36H    basis set group =>   3
Atom  37H    basis set group =>   3
Atom  38H    basis set group =>   3
Atom  39H    basis set group =>   3
Atom  40H    basis set group =>   3
Atom  41H    basis set group =>   3
Atom  42H    basis set group =>   3
Atom  43H    basis set group =>   3
Atom  44H    basis set group =>   3
Atom  45H    basis set group =>   3
Atom  46H    basis set group =>   3
Atom  47H    basis set group =>   3
Atom  48H    basis set group =>   3
Atom  49H    basis set group =>   3
Atom  50H    basis set group =>   3
Atom  51H    basis set group =>   3
Atom  52H    basis set group =>   3
Atom  53H    basis set group =>   3
Atom  54H    basis set group =>   3
Atom  55H    basis set group =>   3
Atom  56H    basis set group =>   3
Atom  57H    basis set group =>   3
Atom  58H    basis set group =>   3
Atom  59H    basis set group =>   3
Atom  60H    basis set group =>   3
Atom  61H    basis set group =>   3
Atom  62H    basis set group =>   3
Atom  63H    basis set group =>   3
---------------------------------
AUXILIARY/C BASIS SET INFORMATION
---------------------------------
There are 3 groups of distinct atoms

 Group   1 Type C   : 17s13p12d2f contracted to 17s13p12d2f pattern {11111111111111111/1111111111111/111111111111/11}
 Group   2 Type N   : 17s13p12d2f contracted to 17s13p12d2f pattern {11111111111111111/1111111111111/111111111111/11}
 Group   3 Type H   : 15s6p1d contracted to 15s6p1d pattern {111111111111111/111111/1}

Atom   0C    basis set group =>   1
Atom   1C    basis set group =>   1
Atom   2C    basis set group =>   1
Atom   3C    basis set group =>   1
Atom   4C    basis set group =>   1
Atom   5C    basis set group =>   1
Atom   6C    basis set group =>   1
Atom   7C    basis set group =>   1
Atom   8C    basis set group =>   1
Atom   9C    basis set group =>   1
Atom  10C    basis set group =>   1
Atom  11C    basis set group =>   1
Atom  12C    basis set group =>   1
Atom  13C    basis set group =>   1
Atom  14C    basis set group =>   1
Atom  15C    basis set group =>   1
Atom  16C    basis set group =>   1
Atom  17C    basis set group =>   1
Atom  18C    basis set group =>   1
Atom  19C    basis set group =>   1
Atom  20C    basis set group =>   1
Atom  21C    basis set group =>   1
Atom  22C    basis set group =>   1
Atom  23C    basis set group =>   1
Atom  24C    basis set group =>   1
Atom  25C    basis set group =>   1
Atom  26C    basis set group =>   1
Atom  27N    basis set group =>   2
Atom  28H    basis set group =>   3
Atom  29H    basis set group =>   3
Atom  30H    basis set group =>   3
Atom  31H    basis set group =>   3
Atom  32H    basis set group =>   3
Atom  33H    basis set group =>   3
Atom  34H    basis set group =>   3
Atom  35H    basis set group =>   3
Atom  36H    basis set group =>   3
Atom  37H    basis set group =>   3
Atom  38H    basis set group =>   3
Atom  39H    basis set group =>   3
Atom  40H    basis set group =>   3
Atom  41H    basis set group =>   3
Atom  42H    basis set group =>   3
Atom  43H    basis set group =>   3
Atom  44H    basis set group =>   3
Atom  45H    basis set group =>   3
Atom  46H    basis set group =>   3
Atom  47H    basis set group =>   3
Atom  48H    basis set group =>   3
Atom  49H    basis set group =>   3
Atom  50H    basis set group =>   3
Atom  51H    basis set group =>   3
Atom  52H    basis set group =>   3
Atom  53H    basis set group =>   3
Atom  54H    basis set group =>   3
Atom  55H    basis set group =>   3
Atom  56H    basis set group =>   3
Atom  57H    basis set group =>   3
Atom  58H    basis set group =>   3
Atom  59H    basis set group =>   3
Atom  60H    basis set group =>   3
Atom  61H    basis set group =>   3
Atom  62H    basis set group =>   3
Atom  63H    basis set group =>   3
----------------------------------
AUXILIARY/JK BASIS SET INFORMATION
----------------------------------
There are 3 groups of distinct atoms

 Group   1 Type C   : 17s13p12d2f contracted to 17s13p12d2f pattern {11111111111111111/1111111111111/111111111111/11}
 Group   2 Type N   : 17s13p12d2f contracted to 17s13p12d2f pattern {11111111111111111/1111111111111/111111111111/11}
 Group   3 Type H   : 15s6p1d contracted to 15s6p1d pattern {111111111111111/111111/1}

Atom   0C    basis set group =>   1
Atom   1C    basis set group =>   1
Atom   2C    basis set group =>   1
Atom   3C    basis set group =>   1
Atom   4C    basis set group =>   1
Atom   5C    basis set group =>   1
Atom   6C    basis set group =>   1
Atom   7C    basis set group =>   1
Atom   8C    basis set group =>   1
Atom   9C    basis set group =>   1
Atom  10C    basis set group =>   1
Atom  11C    basis set group =>   1
Atom  12C    basis set group =>   1
Atom  13C    basis set group =>   1
Atom  14C    basis set group =>   1
Atom  15C    basis set group =>   1
Atom  16C    basis set group =>   1
Atom  17C    basis set group =>   1
Atom  18C    basis set group =>   1
Atom  19C    basis set group =>   1
Atom  20C    basis set group =>   1
Atom  21C    basis set group =>   1
Atom  22C    basis set group =>   1
Atom  23C    basis set group =>   1
Atom  24C    basis set group =>   1
Atom  25C    basis set group =>   1
Atom  26C    basis set group =>   1
Atom  27N    basis set group =>   2
Atom  28H    basis set group =>   3
Atom  29H    basis set group =>   3
Atom  30H    basis set group =>   3
Atom  31H    basis set group =>   3
Atom  32H    basis set group =>   3
Atom  33H    basis set group =>   3
Atom  34H    basis set group =>   3
Atom  35H    basis set group =>   3
Atom  36H    basis set group =>   3
Atom  37H    basis set group =>   3
Atom  38H    basis set group =>   3
Atom  39H    basis set group =>   3
Atom  40H    basis set group =>   3
Atom  41H    basis set group =>   3
Atom  42H    basis set group =>   3
Atom  43H    basis set group =>   3
Atom  44H    basis set group =>   3
Atom  45H    basis set group =>   3
Atom  46H    basis set group =>   3
Atom  47H    basis set group =>   3
Atom  48H    basis set group =>   3
Atom  49H    basis set group =>   3
Atom  50H    basis set group =>   3
Atom  51H    basis set group =>   3
Atom  52H    basis set group =>   3
Atom  53H    basis set group =>   3
Atom  54H    basis set group =>   3
Atom  55H    basis set group =>   3
Atom  56H    basis set group =>   3
Atom  57H    basis set group =>   3
Atom  58H    basis set group =>   3
Atom  59H    basis set group =>   3
Atom  60H    basis set group =>   3
Atom  61H    basis set group =>   3
Atom  62H    basis set group =>   3
Atom  63H    basis set group =>   3


           ************************************************************
           *        Program running with 72 parallel MPI-processes    *
           *              working on a shared directory               *
           ************************************************************
------------------------------------------------------------------------------
                           ORCA GTO INTEGRAL CALCULATION
                           -- RI-GTO INTEGRALS CHOSEN --
------------------------------------------------------------------------------

                         BASIS SET STATISTICS AND STARTUP INFO

Gaussian basis set:
 # of primitive gaussian shells          ...  700
 # of primitive gaussian functions       ... 1164
 # of contracted shells                  ...  432
 # of contracted basis functions         ...  728
 Highest angular momentum                ...    2
 Maximum contraction depth               ...    5
Auxiliary gaussian basis set:
 # of primitive gaussian shells          ... 2024
 # of primitive gaussian functions       ... 5008
 # of contracted shells                  ... 2024
 # of contracted aux-basis functions     ... 5008
 Highest angular momentum                ...    3
 Maximum contraction depth               ...    1
Ratio of auxiliary to basis functions    ...  6.88
Integral package used                  ... LIBINT
 One Electron integrals                  ... done
 Ordering auxiliary basis shells         ... done
 Integral threshhold             Thresh  ...  1.000e-10
 Primitive cut-off               TCut    ...  1.000e-11
 Pre-screening matrix                    ... done
 Shell pair data                         ... 
 Ordering of the shell pairs             ... done (   0.015 sec) 66487 of 93528 pairs
 Determination of significant pairs      ... done (   0.000 sec)
 Creation of shell pair data             ... done (   0.013 sec)
 Storage of shell pair data              ... done (   0.084 sec)
 Shell pair data done in (   0.112 sec)
 Computing two index integrals           ... done
 Cholesky decomposition of the V-matrix  ... done


Timings:
 Total evaluation time                   ...   4.362 sec (  0.073 min)
 One electron matrix time                ...   0.708 sec (  0.012 min) = 16.2%
 Schwartz matrix evaluation time         ...   0.358 sec (  0.006 min) =  8.2%
 Two index repulsion integral time       ...   0.931 sec (  0.016 min) = 21.4%
 Cholesky decomposition of V             ...   2.229 sec (  0.037 min) = 51.1%
 Three index repulsion integral time     ...   0.000 sec (  0.000 min) =  0.0%



           ************************************************************
           *        Program running with 72 parallel MPI-processes    *
           *              working on a shared directory               *
           ************************************************************
-------------------------------------------------------------------------------
                                 ORCA SCF
-------------------------------------------------------------------------------

------------
SCF SETTINGS
------------
Hamiltonian:
 Density Functional     Method          .... DFT(GTOs)
 Exchange Functional    Exchange        .... PBE
   PBE kappa parameter   XKappa         ....  0.804000
   PBE mue parameter    XMuePBE         ....  0.219520
 Correlation Functional Correlation     .... PBE
   PBE beta parameter  CBetaPBE         ....  0.066725
 LDA part of GGA corr.  LDAOpt          .... PW91-LDA
 Gradients option       PostSCFGGA      .... off
   Density functional embedding theory  .... OFF
   NL short-range parameter             ....  6.400000
 RI-approximation to the Coulomb term is turned on
   Number of auxiliary basis functions  .... 5008
   RIJ-COSX (HFX calculated with COS-X)).... on


General Settings:
 Integral files         IntName         .... zfs
 Hartree-Fock type      HFTyp           .... UHF
 Total Charge           Charge          ....   -1
 Multiplicity           Mult            ....    3
 Number of Electrons    NEL             ....  206
 Basis Dimension        Dim             ....  728
 Nuclear Repulsion      ENuc            ....   3308.0184381548 Eh

Convergence Acceleration:
 DIIS                   CNVDIIS         .... on
   Start iteration      DIISMaxIt       ....    12
   Startup error        DIISStart       ....  0.200000
   # of expansion vecs  DIISMaxEq       ....     5
   Bias factor          DIISBfac        ....   1.050
   Max. coefficient     DIISMaxC        ....  10.000
 Newton-Raphson         CNVNR           .... off
 SOSCF                  CNVSOSCF        .... off
 Level Shifting         CNVShift        .... on
   Level shift para.    LevelShift      ....    0.2500
   Turn off err/grad.   ShiftErr        ....    0.0010
 Zerner damping         CNVZerner       .... off
 Static damping         CNVDamp         .... on
   Fraction old density DampFac         ....    0.7000
   Max. Damping (<1)    DampMax         ....    0.9800
   Min. Damping (>=0)   DampMin         ....    0.0000
   Turn off err/grad.   DampErr         ....    0.1000
 Fernandez-Rico         CNVRico         .... off

SCF Procedure:
 Maximum # iterations   MaxIter         ....   125
 SCF integral mode      SCFMode         .... Direct
   Integral package                     .... LIBINT
 Reset frequency        DirectResetFreq ....    20
 Integral Threshold     Thresh          ....  1.000e-10 Eh
 Primitive CutOff       TCut            ....  1.000e-11 Eh

Convergence Tolerance:
 Convergence Check Mode ConvCheckMode   .... Total+1el-Energy
 Convergence forced     ConvForced      .... 0
 Energy Change          TolE            ....  1.000e-06 Eh
 1-El. energy change                    ....  1.000e-03 Eh
 DIIS Error             TolErr          ....  1.000e-06


Diagonalization of the overlap matrix:
Smallest eigenvalue                        ... 1.744e-04
Time for diagonalization                   ...    0.147 sec
Threshold for overlap eigenvalues          ... 1.000e-08
Number of eigenvalues below threshold      ... 0
Time for construction of square roots      ...    0.295 sec
Total time needed                          ...    0.445 sec

-------------------
DFT GRID GENERATION
-------------------

General Integration Accuracy     IntAcc      ...  4.340
Radial Grid Type                 RadialGrid  ... Gauss-Chebyshev
Angular Grid (max. acc.)         AngularGrid ... Lebedev-110
Angular grid pruning method      GridPruning ... 3 (G Style)
Weight generation scheme         WeightScheme... Becke
Basis function cutoff            BFCut       ...    1.0000e-10
Integration weight cutoff        WCut        ...    1.0000e-14
Grids for H and He will be reduced by one unit

# of grid points (after initial pruning)     ...  74998 (   0.0 sec)
# of grid points (after weights+screening)   ...  62466 (   0.1 sec)
nearest neighbour list constructed           ...    0.0 sec
Grid point re-assignment to atoms done       ...    0.0 sec
Grid point division into batches done        ...    0.1 sec
Reduced shell lists constructed in    0.1 sec

Total number of grid points                  ...    62466
Total number of batches                      ...     1009
Average number of points per batch           ...       61
Average number of grid points per atom       ...      976
Average number of shells per batch           ...   227.25 (52.60%)
Average number of basis functions per batch  ...   456.38 (62.69%)
Average number of large shells per batch     ...   169.88 (74.75%)
Average number of large basis fcns per batch ...   337.75 (74.01%)
Maximum spatial batch extension              ...   2.40,  2.24,  2.51 au
Average spatial batch extension              ...   0.03,  0.03,  0.02 au

Time for grid setup =    0.506 sec

------------------------------
INITIAL GUESS: MODEL POTENTIAL
------------------------------
Loading Hartree-Fock densities                     ... done
Calculating cut-offs                               ... done
Setting up the integral package                    ... done
Initializing the effective Hamiltonian             ... done
Starting the Coulomb interaction                   ... done (   0.1 sec)
Reading the grid                                   ... done
Mapping shells                                     ... done
Starting the XC term evaluation                    ... done (   0.2 sec)
  promolecular density results
     # of electrons  =    204.985197777
     EX              =   -156.128389908
     EC              =     -7.167594343
     EX+EC           =   -163.295984252
Transforming the Hamiltonian                       ... done (   0.1 sec)
Diagonalizing the Hamiltonian                      ... done (   0.1 sec)
Back transforming the eigenvectors                 ... done (   0.1 sec)
Now organizing SCF variables                       ... done
                      ------------------
                      INITIAL GUESS DONE (   1.3 sec)
                      ------------------
--------------------
COSX GRID GENERATION
--------------------

General Integration Accuracy     IntAcc      ...  3.340
Radial Grid Type                 RadialGrid  ... Gauss-Chebyshev
Angular Grid (max. acc.)         AngularGrid ... Lebedev-50
Angular grid pruning method      GridPruning ... 3 (G Style)
Weight generation scheme         WeightScheme... Becke
Basis function cutoff            BFCut       ...    1.0000e-10
Integration weight cutoff        WCut        ...    1.0000e-14
Grids for H and He will be reduced by one unit

# of grid points (after initial pruning)     ...  27746 (   0.0 sec)
# of grid points (after weights+screening)   ...  23361 (   0.0 sec)
nearest neighbour list constructed           ...    0.0 sec
Grid point re-assignment to atoms done       ...    0.0 sec
Grid point division into batches done        ...    0.0 sec
Reduced shell lists constructed in    0.0 sec

Total number of grid points                  ...    23361
Total number of batches                      ...      397
Average number of points per batch           ...       58
Average number of grid points per atom       ...      365
Average number of shells per batch           ...   220.29 (50.99%)
Average number of basis functions per batch  ...   440.86 (60.56%)
Average number of large shells per batch     ...   163.57 (74.25%)
Average number of large basis fcns per batch ...   326.14 (73.98%)
Maximum spatial batch extension              ...   2.91,  3.04,  2.80 au
Average spatial batch extension              ...   0.04,  0.04,  0.04 au

Overlap Fitting                  UseSFitting ... on
Constructing numerical overlap ... done (      0.0 sec)
Inverting numerical overlap    ... done (      0.0 sec)
Obtaining analytic overlap     ... done (      0.1 sec)
Final contraction and storage  ... done (      0.1 sec)


General Integration Accuracy     IntAcc      ...  3.670
Radial Grid Type                 RadialGrid  ... Gauss-Chebyshev
Angular Grid (max. acc.)         AngularGrid ... Lebedev-50
Angular grid pruning method      GridPruning ... 3 (G Style)
Weight generation scheme         WeightScheme... Becke
Basis function cutoff            BFCut       ...    1.0000e-10
Integration weight cutoff        WCut        ...    1.0000e-14
Grids for H and He will be reduced by one unit

# of grid points (after initial pruning)     ...  35464 (   0.0 sec)
# of grid points (after weights+screening)   ...  29840 (   0.0 sec)
nearest neighbour list constructed           ...    0.0 sec
Grid point re-assignment to atoms done       ...    0.0 sec
Grid point division into batches done        ...    0.0 sec
Reduced shell lists constructed in    0.0 sec

Total number of grid points                  ...    29840
Total number of batches                      ...      497
Average number of points per batch           ...       60
Average number of grid points per atom       ...      466
Average number of shells per batch           ...   224.00 (51.85%)
Average number of basis functions per batch  ...   448.25 (61.57%)
Average number of large shells per batch     ...   167.25 (74.67%)
Average number of large basis fcns per batch ...   334.50 (74.62%)
Maximum spatial batch extension              ...   3.40,  2.99,  2.59 au
Average spatial batch extension              ...   0.03,  0.03,  0.03 au

Overlap Fitting                  UseSFitting ... on
Constructing numerical overlap ... done (      0.1 sec)
Inverting numerical overlap    ... done (      0.0 sec)
Obtaining analytic overlap     ... done (      0.0 sec)
Final contraction and storage  ... done (      0.1 sec)


General Integration Accuracy     IntAcc      ...  4.010
Radial Grid Type                 RadialGrid  ... Gauss-Chebyshev
Angular Grid (max. acc.)         AngularGrid ... Lebedev-110
Angular grid pruning method      GridPruning ... 3 (G Style)
Weight generation scheme         WeightScheme... Becke
Basis function cutoff            BFCut       ...    1.0000e-10
Integration weight cutoff        WCut        ...    1.0000e-14
Grids for H and He will be reduced by one unit

# of grid points (after initial pruning)     ...  65152 (   0.0 sec)
# of grid points (after weights+screening)   ...  54529 (   0.1 sec)
nearest neighbour list constructed           ...    0.0 sec
Grid point re-assignment to atoms done       ...    0.0 sec
Grid point division into batches done        ...    0.0 sec
Reduced shell lists constructed in    0.1 sec

Total number of grid points                  ...    54529
Total number of batches                      ...      879
Average number of points per batch           ...       62
Average number of grid points per atom       ...      852
Average number of shells per batch           ...   225.50 (52.20%)
Average number of basis functions per batch  ...   451.93 (62.08%)
Average number of large shells per batch     ...   169.79 (75.29%)
Average number of large basis fcns per batch ...   337.36 (74.65%)
Maximum spatial batch extension              ...   2.40,  1.98,  2.90 au
Average spatial batch extension              ...   0.03,  0.03,  0.03 au

Overlap Fitting                  UseSFitting ... on
Constructing numerical overlap ... done (      0.1 sec)
Inverting numerical overlap    ... done (      0.0 sec)
Obtaining analytic overlap     ... done (      0.0 sec)
Final contraction and storage  ... done (      0.1 sec)

Time for X-Grid setup             =    1.248 sec
--------------
SCF ITERATIONS
--------------
ITER       Energy         Delta-E        Max-DP      RMS-DP      [F,P]     Damp
               ***  Starting incremental Fock matrix formation  ***
  0  -1102.3566023632   0.000000000000 7.94759130  0.02046774  0.1512501 0.7000
  1  -1102.7817062665  -0.425103903353 5.10973176  0.01277698  0.0656489 0.7000
                               ***Turning on DIIS***
  2  -1102.8717257785  -0.090019511941 0.78627705  0.00363892  0.0352243 0.0000
  3  -1103.1250610129  -0.253335234389 4.61817250  0.01135556  0.0323159 0.0000
  4  -1103.1582565415  -0.033195528611 1.49266995  0.00365674  0.0198658 0.0000
  5  -1103.1676100783  -0.009353536866 0.67250209  0.00160959  0.0058006 0.0000
  6  -1103.1689510859  -0.001341007555 0.45826644  0.00108487  0.0014012 0.0000
  7  -1103.1691581482  -0.000207062313 0.27730650  0.00064267  0.0022023 0.0000
  8  -1103.1692632493  -0.000105101058 0.58409758  0.00132508  0.0005477 0.0000
  9  -1103.1693302479  -0.000066998587 0.10682485  0.00029225  0.0007406 0.0000
 10  -1103.1693368419  -0.000006594000 0.09819700  0.00022887  0.0005500 0.0000
 11  -1103.1693415783  -0.000004736431 0.03138275  0.00006774  0.0003922 0.0000
 12  -1103.1693435883  -0.000002010021 0.01091468  0.00002035  0.0000747 0.0000
 13  -1103.1693433789   0.000000209420 0.00449838  0.00001217  0.0000821 0.0000
                 **** Energy Check signals convergence ****

               *****************************************************
               *                     SUCCESS                       *
               *           SCF CONVERGED AFTER  14 CYCLES          *
               *****************************************************

Setting up the final grid:

General Integration Accuracy     IntAcc      ...  4.670
Radial Grid Type                 RadialGrid  ... Gauss-Chebyshev
Angular Grid (max. acc.)         AngularGrid ... Lebedev-302
Angular grid pruning method      GridPruning ... 3 (G Style)
Weight generation scheme         WeightScheme... Becke
Basis function cutoff            BFCut       ...    1.0000e-10
Integration weight cutoff        WCut        ...    1.0000e-14
Grids for H and He will be reduced by one unit

# of grid points (after initial pruning)     ... 296120 (   0.0 sec)
# of grid points (after weights+screening)   ... 239135 (   0.2 sec)
nearest neighbour list constructed           ...    0.0 sec
Grid point re-assignment to atoms done       ...    0.1 sec
Grid point division into batches done        ...    0.8 sec
Reduced shell lists constructed in    0.9 sec

Total number of grid points                  ...   239135
Total number of batches                      ...     3770
Average number of points per batch           ...       63
Average number of grid points per atom       ...     3736
Average number of shells per batch           ...   227.07 (52.56%)
Average number of basis functions per batch  ...   456.70 (62.73%)
Average number of large shells per batch     ...   167.83 (73.91%)
Average number of large basis fcns per batch ...   331.69 (72.63%)
Maximum spatial batch extension              ...   1.64,  1.65,  1.84 au
Average spatial batch extension              ...   0.02,  0.02,  0.02 au

Final grid set up in    1.3 sec
Final integration                            ... done (   0.9 sec)
Change in XC energy                          ...     0.001010994
Integrated number of electrons               ...   206.002189096
Previous integrated no of electrons          ...   206.005581143

----------------
TOTAL SCF ENERGY
----------------

Total Energy       :        -1103.16833258 Eh          -30018.73645 eV

Components:
Nuclear Repulsion  :         3308.01843815 Eh           90015.75801 eV
Electronic Energy  :        -4411.18677073 Eh         -120034.49447 eV
One Electron Energy:        -8103.20968630 Eh         -220499.54554 eV
Two Electron Energy:         3692.02291557 Eh          100465.05108 eV

Virial components:
Potential Energy   :        -2203.44914448 Eh          -59958.89947 eV
Kinetic Energy     :         1100.28081190 Eh           29940.16302 eV
Virial Ratio       :            2.00262435


DFT components:
N(Alpha)           :      104.001072391130 electrons
N(Beta)            :      102.001116705286 electrons
N(Total)           :      206.002189096416 electrons
E(X)               :     -159.755742476195 Eh       
E(C)               :       -7.077268167851 Eh       
E(XC)              :     -166.833010644046 Eh       
DFET-embed. en.    :        0.000000000000 Eh       

---------------
SCF CONVERGENCE
---------------

  Last Energy change         ...   -1.9002e-07  Tolerance :   1.0000e-06
  Last MAX-Density change    ...    6.3518e-04  Tolerance :   1.0000e-05
  Last RMS-Density change    ...    1.8469e-06  Tolerance :   1.0000e-06
  Last DIIS Error            ...    3.3824e-05  Tolerance :   1.0000e-06

             **** THE GBW FILE WAS UPDATED (zfs.gbw) ****
             **** DENSITY FILE WAS UPDATED (zfs.scfp) ****
             **** ENERGY FILE WAS UPDATED (zfs.en.tmp) ****
----------------------
UHF SPIN CONTAMINATION
----------------------

Warning: in a DFT calculation there is little theoretical justification to 
         calculate <S**2> as in Hartree-Fock theory. We will do it anyways
         but you should keep in mind that the values have only limited relevance

Expectation value of <S**2>     :     2.011076
Ideal value S*(S+1) for S=1.0   :     2.000000
Deviation                       :     0.011076

             **** THE GBW FILE WAS UPDATED (zfs.gbw) ****
             **** DENSITY FILE WAS UPDATED (zfs.scfp) ****
----------------
ORBITAL ENERGIES
----------------
                 SPIN UP ORBITALS
  NO   OCC          E(Eh)            E(eV) 
   0   1.0000     -13.855824      -377.0361 
   1   1.0000      -9.801636      -266.7161 
   2   1.0000      -9.801239      -266.7053 
   3   1.0000      -9.801203      -266.7043 
   4   1.0000      -9.763026      -265.6654 
   5   1.0000      -9.762895      -265.6619 
   6   1.0000      -9.762891      -265.6618 
   7   1.0000      -9.762840      -265.6604 
   8   1.0000      -9.762787      -265.6589 
   9   1.0000      -9.762699      -265.6565 
  10   1.0000      -9.755857      -265.4704 
  11   1.0000      -9.755814      -265.4692 
  12   1.0000      -9.755481      -265.4601 
  13   1.0000      -9.749109      -265.2868 
  14   1.0000      -9.749066      -265.2856 
  15   1.0000      -9.749006      -265.2839 
  16   1.0000      -9.748416      -265.2679 
  17   1.0000      -9.748412      -265.2678 
  18   1.0000      -9.748347      -265.2660 
  19   1.0000      -9.739939      -265.0372 
  20   1.0000      -9.739754      -265.0322 
  21   1.0000      -9.739576      -265.0273 
  22   1.0000      -9.736011      -264.9303 
  23   1.0000      -9.735408      -264.9139 
  24   1.0000      -9.735288      -264.9106 
  25   1.0000      -9.735018      -264.9033 
  26   1.0000      -9.734420      -264.8870 
  27   1.0000      -9.734406      -264.8867 
  28   1.0000      -0.729761       -19.8578 
  29   1.0000      -0.667593       -18.1661 
  30   1.0000      -0.652452       -17.7541 
  31   1.0000      -0.652315       -17.7504 
  32   1.0000      -0.609411       -16.5829 
  33   1.0000      -0.598259       -16.2795 
  34   1.0000      -0.598009       -16.2726 
  35   1.0000      -0.582542       -15.8518 
  36   1.0000      -0.582436       -15.8489 
  37   1.0000      -0.545807       -14.8522 
  38   1.0000      -0.521647       -14.1947 
  39   1.0000      -0.521580       -14.1929 
  40   1.0000      -0.519014       -14.1231 
  41   1.0000      -0.516019       -14.0416 
  42   1.0000      -0.515638       -14.0312 
  43   1.0000      -0.501973       -13.6594 
  44   1.0000      -0.444706       -12.1011 
  45   1.0000      -0.444611       -12.0985 
  46   1.0000      -0.423897       -11.5348 
  47   1.0000      -0.405298       -11.0287 
  48   1.0000      -0.405287       -11.0284 
  49   1.0000      -0.400346       -10.8940 
  50   1.0000      -0.397632       -10.8201 
  51   1.0000      -0.384097       -10.4518 
  52   1.0000      -0.384035       -10.4501 
  53   1.0000      -0.358473        -9.7545 
  54   1.0000      -0.358078        -9.7438 
  55   1.0000      -0.357852        -9.7376 
  56   1.0000      -0.346550        -9.4301 
  57   1.0000      -0.312924        -8.5151 
  58   1.0000      -0.309066        -8.4101 
  59   1.0000      -0.308888        -8.4053 
  60   1.0000      -0.301346        -8.2000 
  61   1.0000      -0.301242        -8.1972 
  62   1.0000      -0.282120        -7.6769 
  63   1.0000      -0.279295        -7.6000 
  64   1.0000      -0.279246        -7.5987 
  65   1.0000      -0.275766        -7.5040 
  66   1.0000      -0.275721        -7.5027 
  67   1.0000      -0.242729        -6.6050 
  68   1.0000      -0.242672        -6.6034 
  69   1.0000      -0.238300        -6.4845 
  70   1.0000      -0.231149        -6.2899 
  71   1.0000      -0.228501        -6.2178 
  72   1.0000      -0.226382        -6.1602 
  73   1.0000      -0.226293        -6.1577 
  74   1.0000      -0.212523        -5.7831 
  75   1.0000      -0.212445        -5.7809 
  76   1.0000      -0.210187        -5.7195 
  77   1.0000      -0.197081        -5.3628 
  78   1.0000      -0.190661        -5.1881 
  79   1.0000      -0.190630        -5.1873 
  80   1.0000      -0.179344        -4.8802 
  81   1.0000      -0.179300        -4.8790 
  82   1.0000      -0.171507        -4.6669 
  83   1.0000      -0.166827        -4.5396 
  84   1.0000      -0.166787        -4.5385 
  85   1.0000      -0.161139        -4.3848 
  86   1.0000      -0.158730        -4.3193 
  87   1.0000      -0.156232        -4.2513 
  88   1.0000      -0.156189        -4.2501 
  89   1.0000      -0.146986        -3.9997 
  90   1.0000      -0.146907        -3.9975 
  91   1.0000      -0.135145        -3.6775 
  92   1.0000      -0.119958        -3.2642 
  93   1.0000      -0.119863        -3.2616 
  94   1.0000      -0.095578        -2.6008 
  95   1.0000      -0.095542        -2.5998 
  96   1.0000      -0.092657        -2.5213 
  97   1.0000      -0.077144        -2.0992 
  98   1.0000      -0.059046        -1.6067 
  99   1.0000      -0.056849        -1.5469 
 100   1.0000      -0.056574        -1.5395 
 101   1.0000       0.001955         0.0532 
 102   1.0000       0.047232         1.2852 
 103   1.0000       0.047619         1.2958 
 104   0.0000       0.096838         2.6351 
 105   0.0000       0.113751         3.0953 
 106   0.0000       0.116262         3.1636 
 107   0.0000       0.117196         3.1891 
 108   0.0000       0.124425         3.3858 
 109   0.0000       0.124865         3.3978 
 110   0.0000       0.126514         3.4426 
 111   0.0000       0.130512         3.5514 
 112   0.0000       0.131138         3.5684 
 113   0.0000       0.141259         3.8439 
 114   0.0000       0.142005         3.8642 
 115   0.0000       0.143779         3.9124 
 116   0.0000       0.150285         4.0895 
 117   0.0000       0.151150         4.1130 
 118   0.0000       0.153028         4.1641 
 119   0.0000       0.155499         4.2313 
 120   0.0000       0.178912         4.8684 
 121   0.0000       0.180257         4.9050 
 122   0.0000       0.184367         5.0169 
 123   0.0000       0.184483         5.0200 
 124   0.0000       0.184639         5.0243 
 125   0.0000       0.185429         5.0458 
 126   0.0000       0.193214         5.2576 
 127   0.0000       0.194092         5.2815 
 128   0.0000       0.195875         5.3300 
 129   0.0000       0.228125         6.2076 
 130   0.0000       0.228450         6.2164 
 131   0.0000       0.229936         6.2569 
 132   0.0000       0.239757         6.5241 
 133   0.0000       0.246413         6.7052 
 134   0.0000       0.249846         6.7987 
 135   0.0000       0.249880         6.7996 
 136   0.0000       0.251886         6.8542 
 137   0.0000       0.252366         6.8672 
 138   0.0000       0.275179         7.4880 
 139   0.0000       0.277247         7.5443 
 140   0.0000       0.277413         7.5488 
 141   0.0000       0.283655         7.7187 
 142   0.0000       0.283856         7.7241 
 143   0.0000       0.292209         7.9514 
 144   0.0000       0.292570         7.9612 
 145   0.0000       0.292741         7.9659 
 146   0.0000       0.296762         8.0753 
 147   0.0000       0.297159         8.0861 
 148   0.0000       0.297632         8.0990 
 149   0.0000       0.299535         8.1508 
 150   0.0000       0.308418         8.3925 
 151   0.0000       0.308498         8.3947 
 152   0.0000       0.311278         8.4703 
 153   0.0000       0.311695         8.4816 
 154   0.0000       0.313929         8.5424 
 155   0.0000       0.327441         8.9101 
 156   0.0000       0.331937         9.0325 
 157   0.0000       0.332046         9.0354 
 158   0.0000       0.340914         9.2768 
 159   0.0000       0.343640         9.3509 
 160   0.0000       0.344074         9.3627 
 161   0.0000       0.355128         9.6635 
 162   0.0000       0.355388         9.6706 
 163   0.0000       0.356673         9.7056 
 164   0.0000       0.366152         9.9635 
 165   0.0000       0.372389        10.1332 
 166   0.0000       0.373465        10.1625 
 167   0.0000       0.373593        10.1660 
 168   0.0000       0.381766        10.3884 
 169   0.0000       0.382207        10.4004 
 170   0.0000       0.382562        10.4100 
 171   0.0000       0.388645        10.5756 
 172   0.0000       0.389661        10.6032 
 173   0.0000       0.389856        10.6085 
 174   0.0000       0.392820        10.6892 
 175   0.0000       0.393366        10.7040 
 176   0.0000       0.394493        10.7347 
 177   0.0000       0.396956        10.8017 
 178   0.0000       0.398388        10.8407 
 179   0.0000       0.410669        11.1749 
 180   0.0000       0.411628        11.2010 
 181   0.0000       0.413534        11.2528 
 182   0.0000       0.427319        11.6280 
 183   0.0000       0.427889        11.6435 
 184   0.0000       0.428572        11.6620 
 185   0.0000       0.428853        11.6697 
 186   0.0000       0.429252        11.6805 
 187   0.0000       0.431745        11.7484 
 188   0.0000       0.432246        11.7620 
 189   0.0000       0.434107        11.8127 
 190   0.0000       0.436465        11.8768 
 191   0.0000       0.438022        11.9192 
 192   0.0000       0.438290        11.9265 
 193   0.0000       0.451064        12.2741 
 194   0.0000       0.460432        12.5290 
 195   0.0000       0.461256        12.5514 
 196   0.0000       0.467398        12.7185 
 197   0.0000       0.471100        12.8193 
 198   0.0000       0.471140        12.8204 
 199   0.0000       0.472569        12.8593 
 200   0.0000       0.482347        13.1253 
 201   0.0000       0.483278        13.1507 
 202   0.0000       0.498466        13.5640 
 203   0.0000       0.507976        13.8227 
 204   0.0000       0.509324        13.8594 
 205   0.0000       0.510854        13.9010 
 206   0.0000       0.516028        14.0418 
 207   0.0000       0.516281        14.0487 
 208   0.0000       0.527118        14.3436 
 209   0.0000       0.535255        14.5650 
 210   0.0000       0.536078        14.5874 
 211   0.0000       0.536110        14.5883 
 212   0.0000       0.541594        14.7375 
 213   0.0000       0.547272        14.8920 
 214   0.0000       0.547381        14.8950 
 215   0.0000       0.551290        15.0014 
 216   0.0000       0.557811        15.1788 
 217   0.0000       0.558922        15.2090 
 218   0.0000       0.559458        15.2236 
 219   0.0000       0.575581        15.6624 
 220   0.0000       0.579727        15.7752 
 221   0.0000       0.580068        15.7845 
 222   0.0000       0.590265        16.0619 
 223   0.0000       0.591289        16.0898 
 224   0.0000       0.599901        16.3241 
 225   0.0000       0.603021        16.4090 
 226   0.0000       0.604210        16.4414 
 227   0.0000       0.607897        16.5417 
 228   0.0000       0.616407        16.7733 
 229   0.0000       0.617690        16.8082 
 230   0.0000       0.619448        16.8560 
 231   0.0000       0.620554        16.8861 
 232   0.0000       0.620962        16.8972 
 233   0.0000       0.622862        16.9489 
 234   0.0000       0.624105        16.9828 
 235   0.0000       0.625347        17.0166 
 236   0.0000       0.633959        17.2509 
 237   0.0000       0.644349        17.5336 
 238   0.0000       0.644985        17.5509 
 239   0.0000       0.646548        17.5935 
 240   0.0000       0.657857        17.9012 
 241   0.0000       0.658178        17.9099 
 242   0.0000       0.664302        18.0766 
 243   0.0000       0.679022        18.4771 
 244   0.0000       0.697717        18.9859 
 245   0.0000       0.698483        19.0067 
 246   0.0000       0.702626        19.1194 
 247   0.0000       0.703261        19.1367 
 248   0.0000       0.708103        19.2685 
 249   0.0000       0.713547        19.4166 
 250   0.0000       0.714186        19.4340 
 251   0.0000       0.714550        19.4439 
 252   0.0000       0.729685        19.8557 
 253   0.0000       0.736029        20.0284 
 254   0.0000       0.737451        20.0671 
 255   0.0000       0.737672        20.0731 
 256   0.0000       0.745179        20.2773 
 257   0.0000       0.745898        20.2969 
 258   0.0000       0.757352        20.6086 
 259   0.0000       0.758104        20.6290 
 260   0.0000       0.761049        20.7092 
 261   0.0000       0.761505        20.7216 
 262   0.0000       0.761943        20.7335 
 263   0.0000       0.779102        21.2004 
 264   0.0000       0.812082        22.0979 
 265   0.0000       0.827811        22.5259 
 266   0.0000       0.852409        23.1952 
 267   0.0000       0.853238        23.2178 
 268   0.0000       0.856937        23.3184 
 269   0.0000       0.857109        23.3231 
 270   0.0000       0.895938        24.3797 
 271   0.0000       0.898386        24.4463 
 272   0.0000       0.906337        24.6627 
 273   0.0000       0.907906        24.7054 
 274   0.0000       0.915798        24.9201 
 275   0.0000       0.923084        25.1184 
 276   0.0000       0.924595        25.1595 
 277   0.0000       0.942219        25.6391 
 278   0.0000       0.950883        25.8748 
 279   0.0000       0.951778        25.8992 
 280   0.0000       0.956232        26.0204 
 281   0.0000       0.957838        26.0641 
 282   0.0000       0.958869        26.0921 
 283   0.0000       0.961163        26.1546 
 284   0.0000       0.964559        26.2470 
 285   0.0000       0.965733        26.2789 
 286   0.0000       0.984225        26.7821 
 287   0.0000       1.007490        27.4152 
 288   0.0000       1.010742        27.5037 
 289   0.0000       1.011332        27.5197 
 290   0.0000       1.016011        27.6471 
 291   0.0000       1.017217        27.6799 
 292   0.0000       1.018028        27.7019 
 293   0.0000       1.030072        28.0297 
 294   0.0000       1.030289        28.0356 
 295   0.0000       1.039839        28.2955 
 296   0.0000       1.040215        28.3057 
 297   0.0000       1.041371        28.3372 
 298   0.0000       1.046327        28.4720 
 299   0.0000       1.046642        28.4806 
 300   0.0000       1.054507        28.6946 
 301   0.0000       1.060271        28.8514 
 302   0.0000       1.060448        28.8563 
 303   0.0000       1.061130        28.8748 
 304   0.0000       1.066993        29.0344 
 305   0.0000       1.067079        29.0367 
 306   0.0000       1.070250        29.1230 
 307   0.0000       1.088244        29.6126 
 308   0.0000       1.095099        29.7992 
 309   0.0000       1.096302        29.8319 
 310   0.0000       1.124942        30.6112 
 311   0.0000       1.130912        30.7737 
 312   0.0000       1.131648        30.7937 
 313   0.0000       1.132511        30.8172 
 314   0.0000       1.135568        30.9004 
 315   0.0000       1.135719        30.9045 
 316   0.0000       1.139949        31.0196 
 317   0.0000       1.140875        31.0448 
 318   0.0000       1.142267        31.0827 
 319   0.0000       1.146137        31.1880 
 320   0.0000       1.147155        31.2157 
 321   0.0000       1.148510        31.2525 
 322   0.0000       1.148783        31.2600 
 323   0.0000       1.153435        31.3866 
 324   0.0000       1.153973        31.4012 
 325   0.0000       1.154604        31.4184 
 326   0.0000       1.154670        31.4202 
 327   0.0000       1.160448        31.5774 
 328   0.0000       1.161464        31.6050 
 329   0.0000       1.170226        31.8435 
 330   0.0000       1.204102        32.7653 
 331   0.0000       1.204903        32.7871 
 332   0.0000       1.205857        32.8130 
 333   0.0000       1.205927        32.8150 
 334   0.0000       1.208833        32.8940 
 335   0.0000       1.209238        32.9050 
 336   0.0000       1.214840        33.0575 
 337   0.0000       1.214933        33.0600 
 338   0.0000       1.215347        33.0713 
 339   0.0000       1.216282        33.0967 
 340   0.0000       1.233010        33.5519 
 341   0.0000       1.234175        33.5836 
 342   0.0000       1.249552        34.0020 
 343   0.0000       1.270368        34.5685 
 344   0.0000       1.279510        34.8172 
 345   0.0000       1.279602        34.8197 
 346   0.0000       1.282246        34.8917 
 347   0.0000       1.290046        35.1039 
 348   0.0000       1.293512        35.1982 
 349   0.0000       1.295479        35.2518 
 350   0.0000       1.306934        35.5635 
 351   0.0000       1.308439        35.6044 
 352   0.0000       1.313597        35.7448 
 353   0.0000       1.327677        36.1279 
 354   0.0000       1.330361        36.2010 
 355   0.0000       1.331432        36.2301 
 356   0.0000       1.368535        37.2397 
 357   0.0000       1.368844        37.2481 
 358   0.0000       1.381937        37.6044 
 359   0.0000       1.384831        37.6832 
 360   0.0000       1.385262        37.6949 
 361   0.0000       1.402567        38.1658 
 362   0.0000       1.404598        38.2210 
 363   0.0000       1.404728        38.2246 
 364   0.0000       1.411670        38.4135 
 365   0.0000       1.428766        38.8787 
 366   0.0000       1.429412        38.8963 
 367   0.0000       1.438145        39.1339 
 368   0.0000       1.440295        39.1924 
 369   0.0000       1.441185        39.2166 
 370   0.0000       1.454851        39.5885 
 371   0.0000       1.455466        39.6052 
 372   0.0000       1.463976        39.8368 
 373   0.0000       1.485152        40.4130 
 374   0.0000       1.486447        40.4483 
 375   0.0000       1.487754        40.4839 
 376   0.0000       1.496858        40.7316 
 377   0.0000       1.497289        40.7433 
 378   0.0000       1.498080        40.7648 
 379   0.0000       1.505485        40.9663 
 380   0.0000       1.507341        41.0168 
 381   0.0000       1.507569        41.0231 
 382   0.0000       1.511528        41.1308 
 383   0.0000       1.518509        41.3207 
 384   0.0000       1.518898        41.3313 
 385   0.0000       1.530609        41.6500 
 386   0.0000       1.533009        41.7153 
 387   0.0000       1.533400        41.7259 
 388   0.0000       1.539490        41.8916 
 389   0.0000       1.539960        41.9044 
 390   0.0000       1.540489        41.9188 
 391   0.0000       1.553885        42.2834 
 392   0.0000       1.565334        42.5949 
 393   0.0000       1.565590        42.6019 
 394   0.0000       1.566235        42.6194 
 395   0.0000       1.571469        42.7619 
 396   0.0000       1.571861        42.7725 
 397   0.0000       1.583229        43.0818 
 398   0.0000       1.598606        43.5003 
 399   0.0000       1.598764        43.5046 
 400   0.0000       1.611964        43.8638 
 401   0.0000       1.615233        43.9527 
 402   0.0000       1.616496        43.9871 
 403   0.0000       1.621117        44.1128 
 404   0.0000       1.641849        44.6770 
 405   0.0000       1.645353        44.7723 
 406   0.0000       1.650887        44.9229 
 407   0.0000       1.651477        44.9390 
 408   0.0000       1.662698        45.2443 
 409   0.0000       1.662779        45.2465 
 410   0.0000       1.668187        45.3937 
 411   0.0000       1.668958        45.4147 
 412   0.0000       1.686016        45.8788 
 413   0.0000       1.686552        45.8934 
 414   0.0000       1.687979        45.9322 
 415   0.0000       1.688126        45.9363 
 416   0.0000       1.688363        45.9427 
 417   0.0000       1.707943        46.4755 
 418   0.0000       1.731375        47.1131 
 419   0.0000       1.731936        47.1284 
 420   0.0000       1.735826        47.2342 
 421   0.0000       1.744517        47.4707 
 422   0.0000       1.745053        47.4853 
 423   0.0000       1.749863        47.6162 
 424   0.0000       1.752521        47.6885 
 425   0.0000       1.753021        47.7021 
 426   0.0000       1.763237        47.9801 
 427   0.0000       1.763589        47.9897 
 428   0.0000       1.781214        48.4693 
 429   0.0000       1.800971        49.0069 
 430   0.0000       1.801556        49.0228 
 431   0.0000       1.806642        49.1612 
 432   0.0000       1.807163        49.1754 
 433   0.0000       1.812193        49.3123 
 434   0.0000       1.812476        49.3200 
 435   0.0000       1.819317        49.5061 
 436   0.0000       1.819504        49.5112 
 437   0.0000       1.825023        49.6614 
 438   0.0000       1.832112        49.8543 
 439   0.0000       1.832600        49.8676 
 440   0.0000       1.835644        49.9504 
 441   0.0000       1.840663        50.0870 
 442   0.0000       1.840927        50.0942 
 443   0.0000       1.851114        50.3714 
 444   0.0000       1.855566        50.4925 
 445   0.0000       1.856162        50.5087 
 446   0.0000       1.857497        50.5451 
 447   0.0000       1.857924        50.5567 
 448   0.0000       1.858610        50.5753 
 449   0.0000       1.869926        50.8833 
 450   0.0000       1.905692        51.8565 
 451   0.0000       1.905915        51.8626 
 452   0.0000       1.906862        51.8884 
 453   0.0000       1.925996        52.4090 
 454   0.0000       1.930460        52.5305 
 455   0.0000       1.933173        52.6043 
 456   0.0000       1.939506        52.7766 
 457   0.0000       1.939789        52.7844 
 458   0.0000       1.943439        52.8837 
 459   0.0000       1.944431        52.9106 
 460   0.0000       1.950618        53.0790 
 461   0.0000       1.950873        53.0860 
 462   0.0000       1.967078        53.5269 
 463   0.0000       1.969049        53.5805 
 464   0.0000       1.971176        53.6384 
 465   0.0000       1.971315        53.6422 
 466   0.0000       1.993269        54.2396 
 467   0.0000       1.997130        54.3447 
 468   0.0000       1.997656        54.3590 
 469   0.0000       2.006833        54.6087 
 470   0.0000       2.007331        54.6222 
 471   0.0000       2.014879        54.8276 
 472   0.0000       2.016990        54.8851 
 473   0.0000       2.017331        54.8944 
 474   0.0000       2.024141        55.0797 
 475   0.0000       2.032596        55.3097 
 476   0.0000       2.033433        55.3325 
 477   0.0000       2.039732        55.5039 
 478   0.0000       2.039956        55.5100 
 479   0.0000       2.043101        55.5956 
 480   0.0000       2.052287        55.8456 
 481   0.0000       2.053235        55.8714 
 482   0.0000       2.069132        56.3040 
 483   0.0000       2.081821        56.6492 
 484   0.0000       2.084565        56.7239 
 485   0.0000       2.086970        56.7893 
 486   0.0000       2.087182        56.7951 
 487   0.0000       2.105387        57.2905 
 488   0.0000       2.105583        57.2958 
 489   0.0000       2.110328        57.4249 
 490   0.0000       2.118461        57.6463 
 491   0.0000       2.118982        57.6604 
 492   0.0000       2.124773        57.8180 
 493   0.0000       2.126013        57.8518 
 494   0.0000       2.126617        57.8682 
 495   0.0000       2.151085        58.5340 
 496   0.0000       2.162828        58.8535 
 497   0.0000       2.179096        59.2962 
 498   0.0000       2.179494        59.3071 
 499   0.0000       2.193260        59.6817 
 500   0.0000       2.209566        60.1254 
 501   0.0000       2.213414        60.2301 
 502   0.0000       2.213536        60.2334 
 503   0.0000       2.224267        60.5254 
 504   0.0000       2.224804        60.5400 
 505   0.0000       2.225263        60.5525 
 506   0.0000       2.229326        60.6630 
 507   0.0000       2.229661        60.6722 
 508   0.0000       2.250342        61.2349 
 509   0.0000       2.250740        61.2457 
 510   0.0000       2.274292        61.8866 
 511   0.0000       2.275230        61.9121 
 512   0.0000       2.290879        62.3380 
 513   0.0000       2.296106        62.4802 
 514   0.0000       2.307629        62.7938 
 515   0.0000       2.307985        62.8035 
 516   0.0000       2.314016        62.9676 
 517   0.0000       2.326157        63.2979 
 518   0.0000       2.347783        63.8864 
 519   0.0000       2.348223        63.8984 
 520   0.0000       2.358906        64.1891 
 521   0.0000       2.359316        64.2003 
 522   0.0000       2.359853        64.2149 
 523   0.0000       2.395038        65.1723 
 524   0.0000       2.395685        65.1899 
 525   0.0000       2.417551        65.7849 
 526   0.0000       2.423792        65.9547 
 527   0.0000       2.423963        65.9594 
 528   0.0000       2.426340        66.0241 
 529   0.0000       2.435434        66.2715 
 530   0.0000       2.435923        66.2848 
 531   0.0000       2.446251        66.5659 
 532   0.0000       2.456635        66.8484 
 533   0.0000       2.456784        66.8525 
 534   0.0000       2.468044        67.1589 
 535   0.0000       2.468177        67.1625 
 536   0.0000       2.474002        67.3210 
 537   0.0000       2.479394        67.4677 
 538   0.0000       2.511121        68.3311 
 539   0.0000       2.511817        68.3500 
 540   0.0000       2.522244        68.6337 
 541   0.0000       2.550448        69.4012 
 542   0.0000       2.564569        69.7855 
 543   0.0000       2.565232        69.8035 
 544   0.0000       2.584083        70.3165 
 545   0.0000       2.588124        70.4264 
 546   0.0000       2.599784        70.7437 
 547   0.0000       2.600314        70.7581 
 548   0.0000       2.616659        71.2029 
 549   0.0000       2.617245        71.2189 
 550   0.0000       2.632753        71.6409 
 551   0.0000       2.633188        71.6527 
 552   0.0000       2.633298        71.6557 
 553   0.0000       2.671339        72.6908 
 554   0.0000       2.682513        72.9949 
 555   0.0000       2.694567        73.3229 
 556   0.0000       2.695176        73.3395 
 557   0.0000       2.739675        74.5504 
 558   0.0000       2.745174        74.7000 
 559   0.0000       2.747699        74.7687 
[...]
 521( 0) :     2.359317 a.u.    64.200 eV
 522( 0) :     2.359855 a.u.    64.215 eV
 523( 0) :     2.395037 a.u.    65.172 eV
 524( 0) :     2.395688 a.u.    65.190 eV
 525( 0) :     2.417554 a.u.    65.785 eV
 526( 0) :     2.423794 a.u.    65.955 eV
 527( 0) :     2.423965 a.u.    65.959 eV
 528( 0) :     2.426345 a.u.    66.024 eV
 529( 0) :     2.435435 a.u.    66.272 eV
 530( 0) :     2.435924 a.u.    66.285 eV
 531( 0) :     2.446252 a.u.    66.566 eV
 532( 0) :     2.456638 a.u.    66.849 eV
 533( 0) :     2.456787 a.u.    66.853 eV
 534( 0) :     2.468046 a.u.    67.159 eV
 535( 0) :     2.468180 a.u.    67.163 eV
 536( 0) :     2.474006 a.u.    67.321 eV
 537( 0) :     2.479392 a.u.    67.468 eV
 538( 0) :     2.511122 a.u.    68.331 eV
 539( 0) :     2.511819 a.u.    68.350 eV
 540( 0) :     2.522242 a.u.    68.634 eV
 541( 0) :     2.550451 a.u.    69.401 eV
 542( 0) :     2.564568 a.u.    69.785 eV
 543( 0) :     2.565229 a.u.    69.803 eV
 544( 0) :     2.584088 a.u.    70.317 eV
 545( 0) :     2.588116 a.u.    70.426 eV
 546( 0) :     2.599784 a.u.    70.744 eV
 547( 0) :     2.600312 a.u.    70.758 eV
 548( 0) :     2.616659 a.u.    71.203 eV
 549( 0) :     2.617243 a.u.    71.219 eV
 550( 0) :     2.632754 a.u.    71.641 eV
 551( 0) :     2.633188 a.u.    71.653 eV
 552( 0) :     2.633297 a.u.    71.656 eV
 553( 0) :     2.671339 a.u.    72.691 eV
 554( 0) :     2.682514 a.u.    72.995 eV
 555( 0) :     2.694567 a.u.    73.323 eV
 556( 0) :     2.695174 a.u.    73.339 eV
 557( 0) :     2.739679 a.u.    74.550 eV
 558( 0) :     2.745176 a.u.    74.700 eV
 559( 0) :     2.747701 a.u.    74.769 eV
 560( 0) :     2.747797 a.u.    74.771 eV
 561( 0) :     2.757606 a.u.    75.038 eV
 562( 0) :     2.758029 a.u.    75.050 eV
 563( 0) :     2.768109 a.u.    75.324 eV
 564( 0) :     2.768583 a.u.    75.337 eV
 565( 0) :     2.777209 a.u.    75.572 eV
 566( 0) :     2.785354 a.u.    75.793 eV
 567( 0) :     2.785760 a.u.    75.804 eV
 568( 0) :     2.791073 a.u.    75.949 eV
 569( 0) :     2.795614 a.u.    76.073 eV
 570( 0) :     2.796512 a.u.    76.097 eV
 571( 0) :     2.798726 a.u.    76.157 eV
 572( 0) :     2.818689 a.u.    76.700 eV
 573( 0) :     2.819530 a.u.    76.723 eV
 574( 0) :     2.856327 a.u.    77.725 eV
 575( 0) :     2.859431 a.u.    77.809 eV
 576( 0) :     2.860193 a.u.    77.830 eV
 577( 0) :     2.875385 a.u.    78.243 eV
 578( 0) :     2.875723 a.u.    78.252 eV
 579( 0) :     2.910346 a.u.    79.195 eV
 580( 0) :     2.910999 a.u.    79.212 eV
 581( 0) :     2.922533 a.u.    79.526 eV
 582( 0) :     2.923020 a.u.    79.539 eV
 583( 0) :     2.925770 a.u.    79.614 eV
 584( 0) :     2.933754 a.u.    79.831 eV
 585( 0) :     2.962792 a.u.    80.622 eV
 586( 0) :     2.963785 a.u.    80.649 eV
 587( 0) :     2.975052 a.u.    80.955 eV
 588( 0) :     2.985667 a.u.    81.244 eV
 589( 0) :     2.987001 a.u.    81.280 eV
 590( 0) :     3.062814 a.u.    83.343 eV
 591( 0) :     3.063498 a.u.    83.362 eV
 592( 0) :     3.067035 a.u.    83.458 eV
 593( 0) :     3.140568 a.u.    85.459 eV
 594( 0) :     3.799945 a.u.   103.402 eV
 595( 0) :     3.805432 a.u.   103.551 eV
 596( 0) :     3.836509 a.u.   104.397 eV
 597( 0) :     3.850141 a.u.   104.768 eV
 598( 0) :     3.886666 a.u.   105.762 eV
 599( 0) :     3.887716 a.u.   105.790 eV
 600( 0) :     5.167553 a.u.   140.616 eV
 601( 0) :     5.167621 a.u.   140.618 eV
 602( 0) :     5.176441 a.u.   140.858 eV
 603( 0) :     5.181799 a.u.   141.004 eV
 604( 0) :     5.182317 a.u.   141.018 eV
 605( 0) :     5.184841 a.u.   141.087 eV
 606( 0) :     5.280497 a.u.   143.690 eV
 607( 0) :     5.280618 a.u.   143.693 eV
 608( 0) :     5.285609 a.u.   143.829 eV
 609( 0) :     5.287408 a.u.   143.878 eV
 610( 0) :     5.287588 a.u.   143.883 eV
 611( 0) :     5.289437 a.u.   143.933 eV
 612( 0) :     5.298148 a.u.   144.170 eV
 613( 0) :     5.298313 a.u.   144.174 eV
 614( 0) :     5.300714 a.u.   144.240 eV
 615( 0) :     5.318687 a.u.   144.729 eV
 616( 0) :     5.319092 a.u.   144.740 eV
 617( 0) :     5.338224 a.u.   145.260 eV
 618( 0) :     5.371180 a.u.   146.157 eV
 619( 0) :     5.371781 a.u.   146.174 eV
 620( 0) :     5.383287 a.u.   146.487 eV
 621( 0) :     5.399140 a.u.   146.918 eV
 622( 0) :     5.399619 a.u.   146.931 eV
 623( 0) :     5.403017 a.u.   147.024 eV
 624( 0) :     5.417069 a.u.   147.406 eV
 625( 0) :     5.455569 a.u.   148.454 eV
 626( 0) :     5.456190 a.u.   148.470 eV
 627( 0) :     5.456425 a.u.   148.477 eV
 628( 0) :     5.486100 a.u.   149.284 eV
 629( 0) :     5.487609 a.u.   149.325 eV
 630( 0) :     5.487783 a.u.   149.330 eV
 631( 0) :     5.506815 a.u.   149.848 eV
 632( 0) :     5.520034 a.u.   150.208 eV
 633( 0) :     5.521382 a.u.   150.244 eV
 634( 0) :     5.545926 a.u.   150.912 eV
 635( 0) :     5.546279 a.u.   150.922 eV
 636( 0) :     5.557220 a.u.   151.220 eV
 637( 0) :     5.585919 a.u.   152.001 eV
 638( 0) :     5.587724 a.u.   152.050 eV
 639( 0) :     5.588772 a.u.   152.078 eV
 640( 0) :     5.647125 a.u.   153.666 eV
 641( 0) :     5.648878 a.u.   153.714 eV
 642( 0) :     5.669253 a.u.   154.268 eV
 643( 0) :     5.729580 a.u.   155.910 eV
 644( 0) :     5.730185 a.u.   155.926 eV
 645( 0) :     5.746036 a.u.   156.358 eV
 646( 0) :     5.752979 a.u.   156.547 eV
 647( 0) :     5.758487 a.u.   156.696 eV
 648( 0) :     5.759416 a.u.   156.722 eV
 649( 0) :     5.839151 a.u.   158.891 eV
 650( 0) :     5.839662 a.u.   158.905 eV
 651( 0) :     5.894802 a.u.   160.406 eV
 652( 0) :     5.990185 a.u.   163.001 eV
 653( 0) :     5.990456 a.u.   163.009 eV
 654( 0) :     6.074616 a.u.   165.299 eV
 655( 0) :     6.075607 a.u.   165.326 eV
 656( 0) :     6.085792 a.u.   165.603 eV
 657( 0) :     6.096810 a.u.   165.903 eV
 658( 0) :     6.106623 a.u.   166.170 eV
 659( 0) :     6.107420 a.u.   166.191 eV
 660( 0) :     6.114881 a.u.   166.394 eV
 661( 0) :     6.115744 a.u.   166.418 eV
 662( 0) :     6.122073 a.u.   166.590 eV
 663( 0) :     7.460290 a.u.   203.005 eV
 664( 0) :    29.649756 a.u.   806.811 eV
 665( 0) :    29.717507 a.u.   808.654 eV
 666( 0) :    29.717772 a.u.   808.662 eV
 667( 0) :    29.782698 a.u.   810.428 eV
 668( 0) :    29.793087 a.u.   810.711 eV
 669( 0) :    29.793338 a.u.   810.718 eV
 670( 0) :    29.832211 a.u.   811.776 eV
 671( 0) :    30.009870 a.u.   816.610 eV
 672( 0) :    30.010243 a.u.   816.620 eV
 673( 0) :    30.019000 a.u.   816.859 eV
 674( 0) :    30.035396 a.u.   817.305 eV
 675( 0) :    30.041002 a.u.   817.457 eV
 676( 0) :    30.041438 a.u.   817.469 eV
 677( 0) :    30.108426 a.u.   819.292 eV
 678( 0) :    30.108607 a.u.   819.297 eV
 679( 0) :    30.148897 a.u.   820.393 eV
 680( 0) :    30.240068 a.u.   822.874 eV
 681( 0) :    30.240292 a.u.   822.880 eV
 682( 0) :    30.295732 a.u.   824.389 eV
 683( 0) :    30.295887 a.u.   824.393 eV
 684( 0) :    30.319088 a.u.   825.024 eV
 685( 0) :    30.321289 a.u.   825.084 eV
 686( 0) :    30.329021 a.u.   825.295 eV
 687( 0) :    30.329520 a.u.   825.308 eV
 688( 0) :    30.333772 a.u.   825.424 eV
 689( 0) :    30.338586 a.u.   825.555 eV
 690( 0) :    30.338915 a.u.   825.564 eV
 691( 0) :    36.673840 a.u.   997.946 eV
 692( 0) :    36.681952 a.u.   998.167 eV
 693( 0) :    36.682048 a.u.   998.169 eV
 694( 0) :    36.763966 a.u.  1000.398 eV
 695( 0) :    36.766057 a.u.  1000.455 eV
 696( 0) :    36.774578 a.u.  1000.687 eV
 697( 0) :    36.863062 a.u.  1003.095 eV
 698( 0) :    36.878797 a.u.  1003.523 eV
 699( 0) :    36.878976 a.u.  1003.528 eV
 700( 0) :    36.893317 a.u.  1003.918 eV
 701( 0) :    36.893363 a.u.  1003.919 eV
 702( 0) :    36.893455 a.u.  1003.922 eV
 703( 0) :    36.894462 a.u.  1003.949 eV
 704( 0) :    36.905548 a.u.  1004.251 eV
 705( 0) :    36.905814 a.u.  1004.258 eV
 706( 0) :    36.909024 a.u.  1004.346 eV
 707( 0) :    36.909157 a.u.  1004.349 eV
 708( 0) :    36.939090 a.u.  1005.164 eV
 709( 0) :    36.962167 a.u.  1005.792 eV
 710( 0) :    36.962248 a.u.  1005.794 eV
 711( 0) :    36.978807 a.u.  1006.244 eV
 712( 0) :    36.987428 a.u.  1006.479 eV
 713( 0) :    37.012415 a.u.  1007.159 eV
 714( 0) :    37.012806 a.u.  1007.170 eV
 715( 0) :    37.015751 a.u.  1007.250 eV
 716( 0) :    37.026631 a.u.  1007.546 eV
 717( 0) :    37.032280 a.u.  1007.700 eV
 718( 0) :    37.105335 a.u.  1009.687 eV
 719( 0) :    37.105758 a.u.  1009.699 eV
 720( 0) :    37.111670 a.u.  1009.860 eV
 721( 0) :    37.245809 a.u.  1013.510 eV
 722( 0) :    37.253919 a.u.  1013.731 eV
 723( 0) :    37.269589 a.u.  1014.157 eV
 724( 0) :    37.358885 a.u.  1016.587 eV
 725( 0) :    37.371397 a.u.  1016.927 eV
 726( 0) :    37.371849 a.u.  1016.940 eV
 727( 0) :    41.163136 a.u.  1120.106 eV
-------
TIMINGS
-------

Total SCF time: 0 days 0 hours 1 min 8 sec 

Total time                  ....      68.734 sec
Sum of individual times     ....      65.145 sec  ( 94.8%)

Fock matrix formation       ....      42.405 sec  ( 61.7%)
  Split-RI-J                ....      25.132 sec  ( 59.3% of F)
  XC integration            ....      10.273 sec  ( 24.2% of F)
    Basis function eval.    ....       0.360 sec  (  3.5% of XC)
    Density eval.           ....       0.926 sec  (  9.0% of XC)
    XC-Functional eval.     ....       0.071 sec  (  0.7% of XC)
    XC-Potential eval.      ....       1.219 sec  ( 11.9% of XC)
Diagonalization             ....       8.240 sec  ( 12.0%)
Density matrix formation    ....       0.659 sec  (  1.0%)
Population analysis         ....       4.274 sec  (  6.2%)
Initial guess               ....       0.788 sec  (  1.1%)
Orbital Transformation      ....       0.000 sec  (  0.0%)
Orbital Orthonormalization  ....       0.000 sec  (  0.0%)
DIIS solution               ....       5.742 sec  (  8.4%)
Grid generation             ....       3.038 sec  (  4.4%)

-------------------------   --------------------
FINAL SINGLE POINT ENERGY     -1103.168332575094
-------------------------   --------------------

   --->>> SOC part of D-tensor requested, so NeedSOC=true

                            ***************************************
                            *     ORCA property calculations      *
                            ***************************************

                                    ---------------------
                                    Active property flags
                                    ---------------------
   (+) Dipole Moment
   (+) D-tensor
   (+) Spin-Orbit Integrals are needed


------------------------------------------------------------------------------
                       ORCA ELECTRIC PROPERTIES CALCULATION
------------------------------------------------------------------------------

Dipole Moment Calculation                       ... on
Quadrupole Moment Calculation                   ... off
Polarizability Calculation                      ... off
GBWName                                         ... zfs.gbw
Electron density file                           ... zfs.scfp
The origin for moment calculation is the CENTER OF MASS  = ( 0.000010,  0.000054 -3.167486)

-------------
DIPOLE MOMENT
-------------
                                X             Y             Z
Electronic contribution:      0.00161       0.00039       1.06768
Nuclear contribution   :     -0.00110      -0.00365      -0.32886
                        -----------------------------------------
Total Dipole Moment    :      0.00051      -0.00326       0.73881
                        -----------------------------------------
Magnitude (a.u.)       :      0.73882
Magnitude (Debye)      :      1.87793



--------------------
Rotational spectrum 
--------------------
 
Rotational constants in cm-1:     0.009246     0.009141     0.009141 
Rotational constants in MHz :   277.183097   274.048600   274.045280 

 Dipole components along the rotational axes: 
x,y,z [a.u.] :     0.738816    -0.002484    -0.001231 
x,y,z [Debye]:     1.877922    -0.006315    -0.003128 

 


           ************************************************************
           *        Program running with 72 parallel MPI-processes    *
           *              working on a shared directory               *
           ************************************************************
------------------------------------------------------------------------------
                         ORCA SPIN-ORBIT COUPLING CALCULATION
------------------------------------------------------------------------------

GBW file                                    ... zfs.gbw
Input density                               ... zfs.scfp
Output integrals                            ... zfs
Operator type                               ... Mean-field/Effective potential
   One-Electron Terms                       ... 1
   Coulomb Contribution                     ... 2
   Exchange Contribution                    ... 3
   Correlation Contribution                 ... 0
   Maximum number of centers                ... 4
Setting up the integration grid             ... done
Evaluating density on the grid              ... (NumEl=  206.005581) done
Evaluating Coulomb term semi-analytically   ... done
One-Center Exchange (+SOO)                  ... done
Evaluating the spin-orbit operator          ... done
Total time for SOC: 68.464


           ************************************************************
           *        Program running with 72 parallel MPI-processes    *
           *              working on a shared directory               *
           ************************************************************
------------------------------------------------------------------------------
                                ORCA EPR/NMR CALCULATION
------------------------------------------------------------------------------

GBWName                      ... zfs.gbw
Electron density file        ... zfs.scfp
Spin density file            ... zfs.scfr
Spin-orbit integrals         ... zfs
Multiplicity                 ... 3
g-tensor                     ... 0
NMR chemical shifts          ... 0
D-tensor                     ... spin-spin and spin-orbit
D(SS)-algorithm              ... spin-density from UNOs
D(SOC)-algorithm             ... CP (=Coupled-perturbed)
Active orbitals for UNO spin density= 102 .. 103

Starting the spin-spin zero-field-splitting computation (UNO)...
                        ... done with spin-spin calculation

Starting the spin-orbit zero-field-splitting computation (CP)...
Transforming integrals                       ... Max(Pert)=   5.6100e-06
Warning: Perturbation too small - adjusting
Transforming integrals                       ... Max(Pert)=   6.1093e-05
Warning: Perturbation too small - adjusting
Transforming integrals                       ... Max(Pert)=   6.6531e-04
Warning: Perturbation too small - adjusting
Transforming integrals                       ... Max(Pert)=   7.2452e-03
done
    ... no HF exchange - skipping linear equations
ZFS-Tensor - using the prefactors
   -1/(4S**2) for same spin
    1/(2*S*(2*S-1)) for alpha->beta
    1/((S+1)*(2*S+1)) for beta->alpha
                        ... done with spin-orbit calculation

---------------------------
ZERO-FIELD-SPLITTING TENSOR
---------------------------

raw-matrix : 
   0.019952    -0.000309    -0.000018  
  -0.000309     0.019959     0.000017  
  -0.000018     0.000017     0.087100  

Tensor is right-handed
diagonalized D matrix : 
   0.019647     0.020265     0.087100  

   0.711386    -0.702802    -0.000273  
   0.702802     0.711385     0.000254  
   0.000016    -0.000373     1.000000  


Direction X=1 Y=0 Z=2
D   =     0.067144  cm**-1
E/D =     0.004604

SPIN-SPIN-PART
                   0          1          2    
      0      -0.021882  -0.000304  -0.000003
      1      -0.000304  -0.021874   0.000002
      2      -0.000003   0.000002   0.043756
Exchange and Coulomb parts of SS (raw)
Coulomb
                   0          1          2    
      0      -0.016253   0.004622  -0.000038
      1       0.004622  -0.015863   0.000040
      2      -0.000038   0.000040   0.032116
Exchange
                   0          1          2    
      0      -0.005629  -0.004926   0.000035
      1      -0.004926  -0.006011  -0.000038
      2       0.000035  -0.000038   0.011640
One-, two-, three- and four-center SS contributions (raw)
One-Center            (AA|AA):
                   0          1          2    
      0      -0.001527   0.000242  -0.000032
      1       0.000242  -0.001528   0.000026
      2      -0.000032   0.000026   0.003055
Two-Center-Coulomb    (AA|BB):
                   0          1          2    
      0      -0.351610   0.050390  -0.000021
      1       0.050390  -0.351777   0.000077
      2      -0.000021   0.000077   0.703387
Two-Center-Exchange   (AB|BA):
                   0          1          2    
      0      -0.014780  -0.000909   0.000335
      1      -0.000909  -0.014922  -0.000362
      2       0.000335  -0.000362   0.029702
Two-Center-hybrid     (AA|AB):
                   0          1          2    
      0       0.001470  -0.000976   0.000228
      1      -0.000976   0.001514  -0.000237
      2       0.000228  -0.000237  -0.002984
Three-Center-Coulomb  (AA|BC):
                   0          1          2    
      0       0.603527  -0.088216   0.004013
      1      -0.088216   0.603752  -0.004232
      2       0.004013  -0.004232  -1.207279
Three-Center-Exchange (AB|AC):
                   0          1          2    
      0      -0.003913  -0.000717  -0.001778
      1      -0.000717  -0.003674   0.001855
      2      -0.001778   0.001855   0.007588
Four-Center           (AB|CD):
                   0          1          2    
      0      -0.255048   0.039881  -0.002748
      1       0.039881  -0.255240   0.002874
      2      -0.002748   0.002874   0.510288
ALPHA-PART
                   0          1          2    
      0      -0.113506  -0.000009   0.000006
      1      -0.000009  -0.113506  -0.000008
      2       0.000006  -0.000008  -0.108818
BETA-PART
                   0          1          2    
      0      -0.111413  -0.000020   0.000003
      1      -0.000020  -0.111413  -0.000004
      2       0.000003  -0.000004  -0.104850
ALPHA->BETA-PART
                   0          1          2    
      0       0.230141   0.000018  -0.000025
      1       0.000018   0.230141   0.000027
      2      -0.000025   0.000027   0.222801
BETA->ALPHA-PART
                   0          1          2    
      0       0.036612   0.000007   0.000000
      1       0.000007   0.036612   0.000000
      2       0.000000   0.000000   0.034209

Individual contributions (in cm**-1)
                                   D         E
SPIN-SPIN                  :   0.06563    0.00030
  Exchange vs Coulomb
  Coulomb                  :   0.04817   -0.00462
  Exchange                 :   0.01746    0.00492
  One through four center contributions:
  1-center                 :   0.00458   -0.00024
  2-center-Coulomb         :   1.05508   -0.05039
  2-center-Exchange        :   0.04455    0.00091
  2-center-Hybrid          :  -0.00448    0.00098
  3-center-Coulomb         :  -1.81093    0.08821
  3-center-Exchange        :   0.01138    0.00072
  4-center                 :   0.76544   -0.03988
SPIN-ORBIT                 :   0.00151    0.00000
SOMO->VMO  (alpha->alpha)  :   0.00469    0.00001
DOMO->SOMO (beta ->beta )  :   0.00656    0.00002
SOMO->SOMO (alpha->beta )  :  -0.00734   -0.00002
DOMO->VMO  (beta ->alpha)  :  -0.00240   -0.00001


Timings for individual modules:

Sum of individual times         ...      267.157 sec (=   4.453 min)
GTO integral calculation        ...       14.172 sec (=   0.236 min)   5.3 %
Spin-Orbit-Coupling Matrices    ...       68.454 sec (=   1.141 min)  25.6 %
SCF iterations                  ...       77.620 sec (=   1.294 min)  29.1 %
EPR/NMR calculation             ...      106.910 sec (=   1.782 min)  40.0 %
                             ****ORCA TERMINATED NORMALLY****
TOTAL RUN TIME: 0 days 0 hours 4 minutes 47 seconds 115 msec
