
                                 *****************
                                 * O   R   C   A *
                                 *****************

           --- An Ab Initio, DFT and Semiempirical electronic structure package ---

                  #######################################################
                  #                        -***-                        #
                  #          Department of theory and spectroscopy      #
                  #               Directorship: Frank Neese             #
                  #        Max Planck Institute fuer Kohlenforschung    #
                  #                Kaiser Wilhelm Platz 1               #
                  #                 D-45470 Muelheim/Ruhr               #
                  #                      Germany                        #
                  #                                                     #
                  #                  All rights reserved                #
                  #                        -***-                        #
                  #######################################################


                         Program Version 4.2.1 -  RELEASE  -


 With contributions from (in alphabetic order):
   Daniel Aravena         : Magnetic Suceptibility
   Michael Atanasov       : Ab Initio Ligand Field Theory (pilot matlab implementation)
   Alexander A. Auer      : GIAO ZORA, VPT2
   Ute Becker             : Parallelization
   Giovanni Bistoni       : ED, misc. LED, open-shell LED, HFLD
   Martin Brehm           : Molecular dynamics
   Dmytro Bykov           : SCF Hessian
   Vijay G. Chilkuri      : MRCI spin determinant printing, contributions to CSF-ICE
   Dipayan Datta          : RHF DLPNO-CCSD density
   Achintya Kumar Dutta   : EOM-CC, STEOM-CC
   Dmitry Ganyushin       : Spin-Orbit,Spin-Spin,Magnetic field MRCI
   Miquel Garcia          : C-PCM Hessian, Gaussian charge scheme
   Yang Guo               : DLPNO-NEVPT2, CIM, IAO-localization
   Andreas Hansen         : Spin unrestricted coupled pair/coupled cluster methods
   Benjamin Helmich-Paris : CASSCF linear response (MC-RPA)
   Lee Huntington         : MR-EOM, pCC
   Robert Izsak           : Overlap fitted RIJCOSX, COSX-SCS-MP3, EOM
   Christian Kollmar      : KDIIS, OOCD, Brueckner-CCSD(T), CCSD density
   Simone Kossmann        : Meta GGA functionals, TD-DFT gradient, OOMP2, MP2 Hessian
   Martin Krupicka        : AUTO-CI
   Lucas Lang             : DCDCAS
   Dagmar Lenk            : GEPOL surface, SMD
   Dimitrios Liakos       : Extrapolation schemes; Compound Job, initial MDCI parallelization
   Dimitrios Manganas     : Further ROCIS development; embedding schemes
   Dimitrios Pantazis     : SARC Basis sets
   Taras Petrenko         : DFT Hessian,TD-DFT gradient, ASA, ECA, R-Raman, ABS, FL, XAS/XES, NRVS
   Peter Pinski           : DLPNO-MP2, DLPNO-MP2 Gradient
   Christoph Reimann      : Effective Core Potentials
   Marius Retegan         : Local ZFS, SOC
   Christoph Riplinger    : Optimizer, TS searches, QM/MM, DLPNO-CCSD(T), (RO)-DLPNO pert. Triples
   Tobias Risthaus        : Range-separated hybrids, TD-DFT gradient, RPA, STAB
   Michael Roemelt        : Original ROCIS implementation
   Masaaki Saitow         : Open-shell DLPNO-CCSD energy and density
   Barbara Sandhoefer     : DKH picture change effects
   Avijit Sen             : IP-ROCIS
   Kantharuban Sivalingam : CASSCF convergence, NEVPT2, FIC-MRCI
   Bernardo de Souza      : ESD, SOC TD-DFT
   Georgi Stoychev        : AutoAux, RI-MP2 NMR
   Willem Van den Heuvel  : Paramagnetic NMR
   Boris Wezisla          : Elementary symmetry handling
   Frank Wennmohs         : Technical directorship


 We gratefully acknowledge several colleagues who have allowed us to
 interface, adapt or use parts of their codes:
   Stefan Grimme, W. Hujo, H. Kruse,             : VdW corrections, initial TS optimization,
                  C. Bannwarth                     DFT functionals, gCP, sTDA/sTD-DF
   Ed Valeev, F. Pavosevic, A. Kumar             : LibInt (2-el integral package), F12 methods
   Garnet Chan, S. Sharma, J. Yang, R. Olivares  : DMRG
   Ulf Ekstrom                                   : XCFun DFT Library
   Mihaly Kallay                                 : mrcc  (arbitrary order and MRCC methods)
   Andreas Klamt, Michael Diedenhofen            : otool_cosmo (COSMO solvation model)
   Jiri Pittner, Ondrej Demel                    : Mk-CCSD
   Frank Weinhold                                : gennbo (NPA and NBO analysis)
   Christopher J. Cramer and Donald G. Truhlar   : smd solvation model
   Lars Goerigk                                  : TD-DFT with DH, B97 family of functionals
   V. Asgeirsson, H. Jonsson                     : NEB implementation
   FAccTs GmbH                                   : IRC, NEB, NEB-TS, Multilevel, MM, QM/MM, CI optimization
   S Lehtola, MJT Oliveira, MAL Marques          : LibXC Library


 Your calculation uses the libint2 library for the computation of 2-el integrals
 For citations please refer to: http://libint.valeyev.net

 Your ORCA version has been built with support for libXC version: 4.2.3
 For citations please refer to: https://tddft.org/programs/libxc/

 This ORCA versions uses:
   CBLAS   interface :  Fast vector & matrix operations
   LAPACKE interface :  Fast linear algebra routines
   SCALAPACK package :  Parallel linear algebra routines




***************************************
The coordinates will be read from file: nv.xyz
***************************************


----- Orbital basis set information -----
Your calculation utilizes the basis: EPR-II
   V. Barone, in Recent Advances in Density Functional Methods, Part 1 (ed. D. P. Chong), World Scientific, Singapore, 1995, p. 287.

----- AuxJ basis set information -----
Your calculation utilizes the AutoAux generation procedure.
  G. L. Stoychev, A. A. Auer, F. Neese, J. Chem. Theory Comput. 13, 554 (2017)

----- AuxC basis set information -----
Your calculation utilizes the AutoAux generation procedure.
  G. L. Stoychev, A. A. Auer, F. Neese, J. Chem. Theory Comput. 13, 554 (2017)

----- AuxJK basis set information -----
Your calculation utilizes the AutoAux generation procedure.
  G. L. Stoychev, A. A. Auer, F. Neese, J. Chem. Theory Comput. 13, 554 (2017)

================================================================================
                                        WARNINGS
                       Please study these warnings very carefully!
================================================================================


WARNING: your system is open-shell and RHF/RKS was chosen
  ===> : WILL SWITCH to UHF/UKS


INFO   : the flag for use of LIBINT has been found!

================================================================================
                                       INPUT FILE
================================================================================
NAME = zfs.in
|  1> # Use EPR-II is a special basis set for epr, autoaux creates a large auxiliary basis
|  2> !PBE EPR-II AUTOAUX RIJCOSX
|  3> 
|  4> # use original (unoptimized) cluster xyz
|  5> *xyzfile -1 3 nv.xyz
|  6> 
|  7> # Parallelization
|  8> %PAL NPROCS 72 END
|  9> 
| 10> # ZFS calculation
| 11> %EPRNMR DTENSOR SSANDSO
| 12>     DSS     UNO
| 13>     DSOC    CP
| 14> END
| 15> 
| 16>                          ****END OF INPUT****
================================================================================

                       ****************************
                       * Single Point Calculation *
                       ****************************

---------------------------------
CARTESIAN COORDINATES (ANGSTROEM)
---------------------------------
  C      1.052486    1.123685   -2.249811
  C      1.417621   -0.330480   -4.258023
  C     -0.842725    2.778460   -2.199697
  C     -1.984764   -2.119021   -2.199804
  C      2.827595   -0.659316   -2.199700
  C     -1.830590    1.704673   -0.144983
  C      1.820676   -1.715257   -0.144986
  C     -2.395792   -0.719118   -0.145035
  C      2.391585    0.733008   -0.144933
  C      0.575123    2.434383   -0.144931
  C     -0.560988   -2.437673   -0.145037
  C      1.384722   -0.322911    0.395617
  C     -0.972014   -1.037766    0.395566
  C     -0.412728    1.360656    0.395618
  C     -1.421008    0.331447   -3.737621
  C      0.997575    1.065062   -3.737569
  C      0.423612   -1.396301   -3.737623
  C     -1.829478    1.704651   -1.693673
  C      1.820580   -1.714147   -1.693676
  C     -2.394770   -0.719525   -1.693726
  C      2.391023    0.732121   -1.693623
  C      0.574272    2.433767   -1.693621
  C     -0.561463   -2.436678   -1.693727
  C     -1.499291    0.349669   -2.249865
  C      0.446914   -1.473229   -2.249867
  C     -0.422436    1.392996   -4.258021
  C     -0.994980   -1.062280   -4.258075
  N      0.000000    0.000000    0.000000
  H      2.402290   -0.560102   -3.907906
  H      1.410657   -0.328832   -5.328003
  H     -0.847803    2.795278   -3.269544
  H     -1.134520    3.740428   -1.833101
  H     -2.670312   -2.850943   -1.826663
  H     -2.001542   -2.136932   -3.269519
  H      2.844708   -0.663283   -3.269548
  H      3.806578   -0.887613   -1.833106
  H     -2.529449    0.975151    0.207581
  H     -2.109419    2.677319    0.203028
  H      2.805903   -1.938293    0.207839
  H      1.130693   -2.455452    0.202756
  H     -3.081563   -1.460848    0.207753
  H     -2.691830    0.248508    0.202744
  H      2.109228    1.702984    0.207668
  H      3.373332    0.488144    0.203076
  H      0.275650    3.399129    0.207895
  H      1.561128    2.206933    0.202848
  H      0.420211   -2.678147    0.207562
  H     -1.263923   -3.165474    0.202936
  H      1.396871   -0.325768    1.465539
  H     -0.980571   -1.046904    1.465488
  H     -0.416371    1.372590    1.465541
  H     -2.399664    0.559668   -4.105093
  H      1.684551    1.798509   -4.105005
  H      0.715310   -2.357949   -4.105096
  H     -2.813825    1.941786   -2.039696
  H      2.121545   -2.680889   -2.039701
  H     -3.382473   -0.496783   -2.039749
  H      3.088563    1.466038   -2.039611
  H      1.261026    3.177786   -2.039609
  H     -0.274641   -3.407710   -2.039752
  H     -0.420405    1.386374   -5.328007
  H     -0.715907    2.360488   -3.907684
  H     -1.686176   -1.800232   -3.907994
  H     -0.990062   -1.057028   -5.328055

----------------------------
CARTESIAN COORDINATES (A.U.)
----------------------------
  NO LB      ZA    FRAG     MASS         X           Y           Z
   0 C     6.0000    0    12.011    1.988910    2.123456   -4.251526
   1 C     6.0000    0    12.011    2.678916   -0.624516   -8.046497
   2 C     6.0000    0    12.011   -1.592519    5.250528   -4.156825
   3 C     6.0000    0    12.011   -3.750661   -4.004369   -4.157026
   4 C     6.0000    0    12.011    5.343380   -1.245928   -4.156831
   5 C     6.0000    0    12.011   -3.459313    3.221365   -0.273977
   6 C     6.0000    0    12.011    3.440579   -3.241366   -0.273984
   7 C     6.0000    0    12.011   -4.527390   -1.358937   -0.274077
   8 C     6.0000    0    12.011    4.519441    1.385185   -0.273883
   9 C     6.0000    0    12.011    1.086825    4.600318   -0.273880
  10 C     6.0000    0    12.011   -1.060114   -4.606534   -0.274081
  11 C     6.0000    0    12.011    2.616746   -0.610214    0.747607
  12 C     6.0000    0    12.011   -1.836840   -1.961094    0.747512
  13 C     6.0000    0    12.011   -0.779942    2.571267    0.747611
  14 C     6.0000    0    12.011   -2.685315    0.626345   -7.063080
  15 C     6.0000    0    12.011    1.885144    2.012675   -7.062982
  16 C     6.0000    0    12.011    0.800511   -2.638627   -7.063084
  17 C     6.0000    0    12.011   -3.457213    3.221324   -3.200578
  18 C     6.0000    0    12.011    3.440397   -3.239269   -3.200585
  19 C     6.0000    0    12.011   -4.525460   -1.359706   -3.200678
  20 C     6.0000    0    12.011    4.518379    1.383508   -3.200484
  21 C     6.0000    0    12.011    1.085217    4.599153   -3.200481
  22 C     6.0000    0    12.011   -1.061012   -4.604654   -3.200681
  23 C     6.0000    0    12.011   -2.833250    0.660779   -4.251629
  24 C     6.0000    0    12.011    0.844544   -2.783999   -4.251633
  25 C     6.0000    0    12.011   -0.798289    2.632381   -8.046494
  26 C     6.0000    0    12.011   -1.880240   -2.007418   -8.046595
  27 N     7.0000    0    14.007    0.000000    0.000000    0.000000
  28 H     1.0000    0     1.008    4.539669   -1.058439   -7.384872
  29 H     1.0000    0     1.008    2.665755   -0.621402  -10.068467
  30 H     1.0000    0     1.008   -1.602116    5.282311   -6.178543
  31 H     1.0000    0     1.008   -2.143932    7.068384   -3.464060
  32 H     1.0000    0     1.008   -5.046158   -5.387501   -3.451893
  33 H     1.0000    0     1.008   -3.782367   -4.038217   -6.178495
  34 H     1.0000    0     1.008    5.375719   -1.253424   -6.178550
  35 H     1.0000    0     1.008    7.193389   -1.677346   -3.464069
  36 H     1.0000    0     1.008   -4.779965    1.842769    0.392271
  37 H     1.0000    0     1.008   -3.986225    5.059399    0.383668
  38 H     1.0000    0     1.008    5.302389   -3.662843    0.392758
  39 H     1.0000    0     1.008    2.136700   -4.640132    0.383154
  40 H     1.0000    0     1.008   -5.823311   -2.760602    0.392597
  41 H     1.0000    0     1.008   -5.086822    0.469612    0.383131
  42 H     1.0000    0     1.008    3.985863    3.218174    0.392436
  43 H     1.0000    0     1.008    6.374674    0.922459    0.383759
  44 H     1.0000    0     1.008    0.520903    6.423423    0.392864
  45 H     1.0000    0     1.008    2.950104    4.170499    0.383326
  46 H     1.0000    0     1.008    0.794083   -5.060964    0.392235
  47 H     1.0000    0     1.008   -2.388468   -5.981880    0.383494
  48 H     1.0000    0     1.008    2.639704   -0.615613    2.769468
  49 H     1.0000    0     1.008   -1.853010   -1.978361    2.769372
  50 H     1.0000    0     1.008   -0.786827    2.593820    2.769471
  51 H     1.0000    0     1.008   -4.534708    1.057619   -7.757501
  52 H     1.0000    0     1.008    3.183341    3.398689   -7.757336
  53 H     1.0000    0     1.008    1.351741   -4.455877   -7.757507
  54 H     1.0000    0     1.008   -5.317358    3.669443   -3.854467
  55 H     1.0000    0     1.008    4.009138   -5.066147   -3.854476
  56 H     1.0000    0     1.008   -6.391947   -0.938785   -3.854568
  57 H     1.0000    0     1.008    5.836539    2.770410   -3.854305
  58 H     1.0000    0     1.008    2.382994    6.005145   -3.854302
  59 H     1.0000    0     1.008   -0.518996   -6.439639   -3.854573
  60 H     1.0000    0     1.008   -0.794450    2.619868  -10.068475
  61 H     1.0000    0     1.008   -1.352868    4.460676   -7.384452
  62 H     1.0000    0     1.008   -3.186410   -3.401945   -7.385038
  63 H     1.0000    0     1.008   -1.870946   -1.997493  -10.068564

--------------------------------
INTERNAL COORDINATES (ANGSTROEM)
--------------------------------
 C      0   0   0     0.000000000000     0.00000000     0.00000000
 C      1   0   0     2.506159188445     0.00000000     0.00000000
 C      1   2   0     2.516468737054   120.47980034     0.00000000
 C      2   1   3     4.360203421517    75.28951497   283.77948095
 C      1   2   3     2.516468891829    60.13666439   174.71907258
 C      3   1   2     2.520068780339    91.79194712   121.28833101
 C      5   1   2     2.520068762795    91.79201992   236.05607763
 C      6   3   1     2.488818367356   120.26272268   304.19020218
 C      7   5   1     2.513948947432    60.08027954   306.41229826
 C      9   7   5     2.488817352884   120.00002879   109.82545099
 C      7   5   1     2.488816776363   120.26270160    55.80983232
 C      7   5   1     1.555934702085    91.16206225   325.68709312
 C      8   6   3     1.555934052718    89.52038817    91.06561726
 C      6   3   1     1.555934061962    91.16212210    34.31292444
 C      3   1   2     2.947455099235    65.88562637    32.41919380
 C      1   2   3     1.489925410389    35.15414079   323.08151360
 C      2   1   3     1.547529030341    92.09616880   273.73521373
 C      3   1   2     1.543634498294    91.74891422    85.78589531
 C      5   1   2     1.543634475234    91.74900363   271.55851520
 C      4   2   1     1.543634426757    89.43441785    30.89183769
 C      1   2   3     1.501448811199    90.89532349   191.81515951
 C      1   2   3     1.501449344710   148.15946932   329.09681936
 C      4   2   1     1.543633746378    61.29331666   278.87882690
 C     15   3   1     1.489925437905    58.60967736    79.25168916
 C     17   2   1     1.489925476661   111.18022712   326.95804090
 C     16   1   2     1.547528290086   111.18021289   121.75553486
 C     17   2   1     1.547528292687   109.09004223    89.92306831
 N     12   7   5     1.475886138629   111.44049750    93.52608411
 H      2   1   3     1.069990716405    89.79352601   164.26253073
 H      2   1   3     1.070004294791   143.07770562    40.86734296
 H      3   1   2     1.069991509769    89.65616666   336.17389656
 H      3   1   2     1.070008907213   143.45442872   213.40182389
 H      4   2   1     1.070008629476   160.93593849   213.27452151
 H      4   2   1     1.069996784541    63.07524127   143.53512798
 H     29   2   1     0.783506148009   144.53757491    32.14134810
 H      5   1   2     1.070008456971   143.45441156   143.94258785
 H      6   3   1     1.070002931494   144.60622176   267.56155989
 H      6   3   1     1.069998801619    88.85452189   143.28877488
 H      7   5   1     1.070001690541    89.32902228   216.43024000
 H      7   5   1     1.069995564187   144.34073003    91.60649892
 H      8   6   3     1.070002207414   145.14813580   215.49452427
 H     37   6   3     0.744581473047   143.67474238    62.06104377
 H      9   7   5     1.070002898137   145.37732653   145.27378862
 H      9   7   5     1.069998337284    89.16959392   270.84373779
 H     10   9   7     1.070002154184   145.14812965   144.76011294
 H     43   9   7     0.744581166946   143.67473630   300.54055367
 H     40   7   5     0.744581002405   145.51897273   298.58473537
 H     11   7   5     1.069998827602   145.69948101   144.51454583
 H     12   7   5     1.069995472812   109.98972409   211.05044892
 H     13   8   6     1.069995477086   109.98975803    90.79100385
 H     14   6   3     1.069995466060   109.98975814   148.94952878
 H     15   3   1     1.069995020750   100.46116414   182.87308406
 H     16   1   2     1.069995530305   106.99377722   240.87773464
 H     17   2   1     1.069995470886   109.17096226   209.14698704
 H     18   3   1     1.070001082562   109.14081204   209.46733766
 H     19   5   1     1.070001543909   109.14088144   150.53266270
 H     20   4   2     1.070001076239   109.14085334   120.92648836
 H     21   1   2     1.070001583970   106.41034514    92.35939567
 H     22   1   2     1.070001596509   106.41041642   291.94871452
 H     23   4   2     1.070001549605   109.14085331   258.30749265
 H     26  16   1     1.070008557446   109.46621821   177.47400826
 H     31   3   1     0.783365299161   143.60830349    31.99437328
 H     34   4   2     0.787701493899   142.83583399   341.07939127
 H     27  17   2     1.070004297034   109.46009776    59.54970981

---------------------------
INTERNAL COORDINATES (A.U.)
---------------------------
 C      0   0   0     0.000000000000     0.00000000     0.00000000
 C      1   0   0     4.735954514171     0.00000000     0.00000000
 C      1   2   0     4.755436737607   120.47980034     0.00000000
 C      2   1   3     8.239590354853    75.28951497   283.77948095
 C      1   2   3     4.755437030089    60.13666439   174.71907258
 C      3   1   2     4.762239833485    91.79194712   121.28833101
 C      5   1   2     4.762239800333    91.79201992   236.05607763
 C      6   3   1     4.703185111377   120.26272268   304.19020218
 C      7   5   1     4.750675025305    60.08027954   306.41229826
 C      9   7   5     4.703183194302   120.00002879   109.82545099
 C      7   5   1     4.703182104834   120.26270160    55.80983232
 C      7   5   1     2.940290469205    91.16206225   325.68709312
 C      8   6   3     2.940289242079    89.52038817    91.06561726
 C      6   3   1     2.940289259547    91.16212210    34.31292444
 C      3   1   2     5.569882929583    65.88562637    32.41919380
 C      1   2   3     2.815550985606    35.15414079   323.08151360
 C      2   1   3     2.924406051638    92.09616880   273.73521373
 C      3   1   2     2.917046452649    91.74891422    85.78589531
 C      5   1   2     2.917046409072    91.74900363   271.55851520
 C      4   2   1     2.917046317463    89.43441785    30.89183769
 C      1   2   3     2.837327057268    90.89532349   191.81515951
 C      1   2   3     2.837328065458   148.15946932   329.09681936
 C      4   2   1     2.917045031733    61.29331666   278.87882690
 C     15   3   1     2.815551037604    58.60967736    79.25168916
 C     17   2   1     2.815551110841   111.18022712   326.95804090
 C     16   1   2     2.924404652757   111.18021289   121.75553486
 C     17   2   1     2.924404657674   109.09004223    89.92306831
 N     12   7   5     2.789020606859   111.44049750    93.52608411
 H      2   1   3     2.021989419844    89.79352601   164.26253073
 H      2   1   3     2.022015079274   143.07770562    40.86734296
 H      3   1   2     2.021990919084    89.65616666   336.17389656
 H      3   1   2     2.022023795489   143.45442872   213.40182389
 H      4   2   1     2.022023270642   160.93593849   213.27452151
 H      4   2   1     2.022000886958    63.07524127   143.53512798
 H     29   2   1     1.480612043980   144.53757491    32.14134810
 H      5   1   2     2.022022944654   143.45441156   143.94258785
 H      6   3   1     2.022012503016   144.60622176   267.56155989
 H      6   3   1     2.022004698684    88.85452189   143.28877488
 H      7   5   1     2.022010157955    89.32902228   216.43024000
 H      7   5   1     2.021998580825   144.34073003    91.60649892
 H      8   6   3     2.022011134704   145.14813580   215.49452427
 H     37   6   3     1.407055068451   143.67474238    62.06104377
 H      9   7   5     2.022012439982   145.37732653   145.27378862
 H      9   7   5     2.022003821218    89.16959392   270.84373779
 H     10   9   7     2.022011034113   145.14812965   144.76011294
 H     43   9   7     1.407054490003   143.67473630   300.54055367
 H     40   7   5     1.407054179065   145.51897273   298.58473537
 H     11   7   5     2.022004747785   145.69948101   144.51454583
 H     12   7   5     2.021998408150   109.98972409   211.05044892
 H     13   8   6     2.021998416226   109.98975803    90.79100385
 H     14   6   3     2.021998395392   109.98975814   148.94952878
 H     15   3   1     2.021997553877   100.46116414   182.87308406
 H     16   1   2     2.021998516797   106.99377722   240.87773464
 H     17   2   1     2.021998404512   109.17096226   209.14698704
 H     18   3   1     2.022009009041   109.14081204   209.46733766
 H     19   5   1     2.022009880861   109.14088144   150.53266270
 H     20   4   2     2.022008997092   109.14085334   120.92648836
 H     21   1   2     2.022009956565   106.41034514    92.35939567
 H     22   1   2     2.022009980260   106.41041642   291.94871452
 H     23   4   2     2.022009891625   109.14085331   258.30749265
 H     26  16   1     2.022023134524   109.46621821   177.47400826
 H     31   3   1     1.480345878231   143.60830349    31.99437328
 H     34   4   2     1.488540098749   142.83583399   341.07939127
 H     27  17   2     2.022015083513   109.46009776    59.54970981

---------------------
BASIS SET INFORMATION
---------------------
There are 3 groups of distinct atoms

 Group   1 Type C   : 10s5p1d contracted to 6s2p1d pattern {511111/41/1}
 Group   2 Type N   : 10s5p1d contracted to 6s2p1d pattern {511111/41/1}
 Group   3 Type H   : 6s1p contracted to 4s1p pattern {3111/1}

Atom   0C    basis set group =>   1
Atom   1C    basis set group =>   1
Atom   2C    basis set group =>   1
Atom   3C    basis set group =>   1
Atom   4C    basis set group =>   1
Atom   5C    basis set group =>   1
Atom   6C    basis set group =>   1
Atom   7C    basis set group =>   1
Atom   8C    basis set group =>   1
Atom   9C    basis set group =>   1
Atom  10C    basis set group =>   1
Atom  11C    basis set group =>   1
Atom  12C    basis set group =>   1
Atom  13C    basis set group =>   1
Atom  14C    basis set group =>   1
Atom  15C    basis set group =>   1
Atom  16C    basis set group =>   1
Atom  17C    basis set group =>   1
Atom  18C    basis set group =>   1
Atom  19C    basis set group =>   1
Atom  20C    basis set group =>   1
Atom  21C    basis set group =>   1
Atom  22C    basis set group =>   1
Atom  23C    basis set group =>   1
Atom  24C    basis set group =>   1
Atom  25C    basis set group =>   1
Atom  26C    basis set group =>   1
Atom  27N    basis set group =>   2
Atom  28H    basis set group =>   3
Atom  29H    basis set group =>   3
Atom  30H    basis set group =>   3
Atom  31H    basis set group =>   3
Atom  32H    basis set group =>   3
Atom  33H    basis set group =>   3
Atom  34H    basis set group =>   3
Atom  35H    basis set group =>   3
Atom  36H    basis set group =>   3
Atom  37H    basis set group =>   3
Atom  38H    basis set group =>   3
Atom  39H    basis set group =>   3
Atom  40H    basis set group =>   3
Atom  41H    basis set group =>   3
Atom  42H    basis set group =>   3
Atom  43H    basis set group =>   3
Atom  44H    basis set group =>   3
Atom  45H    basis set group =>   3
Atom  46H    basis set group =>   3
Atom  47H    basis set group =>   3
Atom  48H    basis set group =>   3
Atom  49H    basis set group =>   3
Atom  50H    basis set group =>   3
Atom  51H    basis set group =>   3
Atom  52H    basis set group =>   3
Atom  53H    basis set group =>   3
Atom  54H    basis set group =>   3
Atom  55H    basis set group =>   3
Atom  56H    basis set group =>   3
Atom  57H    basis set group =>   3
Atom  58H    basis set group =>   3
Atom  59H    basis set group =>   3
Atom  60H    basis set group =>   3
Atom  61H    basis set group =>   3
Atom  62H    basis set group =>   3
Atom  63H    basis set group =>   3
---------------------------------
AUXILIARY/J BASIS SET INFORMATION
---------------------------------
There are 3 groups of distinct atoms

 Group   1 Type C   : 17s13p12d2f contracted to 17s13p12d2f pattern {11111111111111111/1111111111111/111111111111/11}
 Group   2 Type N   : 17s13p12d2f contracted to 17s13p12d2f pattern {11111111111111111/1111111111111/111111111111/11}
 Group   3 Type H   : 15s6p1d contracted to 15s6p1d pattern {111111111111111/111111/1}

Atom   0C    basis set group =>   1
Atom   1C    basis set group =>   1
Atom   2C    basis set group =>   1
Atom   3C    basis set group =>   1
Atom   4C    basis set group =>   1
Atom   5C    basis set group =>   1
Atom   6C    basis set group =>   1
Atom   7C    basis set group =>   1
Atom   8C    basis set group =>   1
Atom   9C    basis set group =>   1
Atom  10C    basis set group =>   1
Atom  11C    basis set group =>   1
Atom  12C    basis set group =>   1
Atom  13C    basis set group =>   1
Atom  14C    basis set group =>   1
Atom  15C    basis set group =>   1
Atom  16C    basis set group =>   1
Atom  17C    basis set group =>   1
Atom  18C    basis set group =>   1
Atom  19C    basis set group =>   1
Atom  20C    basis set group =>   1
Atom  21C    basis set group =>   1
Atom  22C    basis set group =>   1
Atom  23C    basis set group =>   1
Atom  24C    basis set group =>   1
Atom  25C    basis set group =>   1
Atom  26C    basis set group =>   1
Atom  27N    basis set group =>   2
Atom  28H    basis set group =>   3
Atom  29H    basis set group =>   3
Atom  30H    basis set group =>   3
Atom  31H    basis set group =>   3
Atom  32H    basis set group =>   3
Atom  33H    basis set group =>   3
Atom  34H    basis set group =>   3
Atom  35H    basis set group =>   3
Atom  36H    basis set group =>   3
Atom  37H    basis set group =>   3
Atom  38H    basis set group =>   3
Atom  39H    basis set group =>   3
Atom  40H    basis set group =>   3
Atom  41H    basis set group =>   3
Atom  42H    basis set group =>   3
Atom  43H    basis set group =>   3
Atom  44H    basis set group =>   3
Atom  45H    basis set group =>   3
Atom  46H    basis set group =>   3
Atom  47H    basis set group =>   3
Atom  48H    basis set group =>   3
Atom  49H    basis set group =>   3
Atom  50H    basis set group =>   3
Atom  51H    basis set group =>   3
Atom  52H    basis set group =>   3
Atom  53H    basis set group =>   3
Atom  54H    basis set group =>   3
Atom  55H    basis set group =>   3
Atom  56H    basis set group =>   3
Atom  57H    basis set group =>   3
Atom  58H    basis set group =>   3
Atom  59H    basis set group =>   3
Atom  60H    basis set group =>   3
Atom  61H    basis set group =>   3
Atom  62H    basis set group =>   3
Atom  63H    basis set group =>   3
---------------------------------
AUXILIARY/C BASIS SET INFORMATION
---------------------------------
There are 3 groups of distinct atoms

 Group   1 Type C   : 17s13p12d2f contracted to 17s13p12d2f pattern {11111111111111111/1111111111111/111111111111/11}
 Group   2 Type N   : 17s13p12d2f contracted to 17s13p12d2f pattern {11111111111111111/1111111111111/111111111111/11}
 Group   3 Type H   : 15s6p1d contracted to 15s6p1d pattern {111111111111111/111111/1}

Atom   0C    basis set group =>   1
Atom   1C    basis set group =>   1
Atom   2C    basis set group =>   1
Atom   3C    basis set group =>   1
Atom   4C    basis set group =>   1
Atom   5C    basis set group =>   1
Atom   6C    basis set group =>   1
Atom   7C    basis set group =>   1
Atom   8C    basis set group =>   1
Atom   9C    basis set group =>   1
Atom  10C    basis set group =>   1
Atom  11C    basis set group =>   1
Atom  12C    basis set group =>   1
Atom  13C    basis set group =>   1
Atom  14C    basis set group =>   1
Atom  15C    basis set group =>   1
Atom  16C    basis set group =>   1
Atom  17C    basis set group =>   1
Atom  18C    basis set group =>   1
Atom  19C    basis set group =>   1
Atom  20C    basis set group =>   1
Atom  21C    basis set group =>   1
Atom  22C    basis set group =>   1
Atom  23C    basis set group =>   1
Atom  24C    basis set group =>   1
Atom  25C    basis set group =>   1
Atom  26C    basis set group =>   1
Atom  27N    basis set group =>   2
Atom  28H    basis set group =>   3
Atom  29H    basis set group =>   3
Atom  30H    basis set group =>   3
Atom  31H    basis set group =>   3
Atom  32H    basis set group =>   3
Atom  33H    basis set group =>   3
Atom  34H    basis set group =>   3
Atom  35H    basis set group =>   3
Atom  36H    basis set group =>   3
Atom  37H    basis set group =>   3
Atom  38H    basis set group =>   3
Atom  39H    basis set group =>   3
Atom  40H    basis set group =>   3
Atom  41H    basis set group =>   3
Atom  42H    basis set group =>   3
Atom  43H    basis set group =>   3
Atom  44H    basis set group =>   3
Atom  45H    basis set group =>   3
Atom  46H    basis set group =>   3
Atom  47H    basis set group =>   3
Atom  48H    basis set group =>   3
Atom  49H    basis set group =>   3
Atom  50H    basis set group =>   3
Atom  51H    basis set group =>   3
Atom  52H    basis set group =>   3
Atom  53H    basis set group =>   3
Atom  54H    basis set group =>   3
Atom  55H    basis set group =>   3
Atom  56H    basis set group =>   3
Atom  57H    basis set group =>   3
Atom  58H    basis set group =>   3
Atom  59H    basis set group =>   3
Atom  60H    basis set group =>   3
Atom  61H    basis set group =>   3
Atom  62H    basis set group =>   3
Atom  63H    basis set group =>   3
----------------------------------
AUXILIARY/JK BASIS SET INFORMATION
----------------------------------
There are 3 groups of distinct atoms

 Group   1 Type C   : 17s13p12d2f contracted to 17s13p12d2f pattern {11111111111111111/1111111111111/111111111111/11}
 Group   2 Type N   : 17s13p12d2f contracted to 17s13p12d2f pattern {11111111111111111/1111111111111/111111111111/11}
 Group   3 Type H   : 15s6p1d contracted to 15s6p1d pattern {111111111111111/111111/1}

Atom   0C    basis set group =>   1
Atom   1C    basis set group =>   1
Atom   2C    basis set group =>   1
Atom   3C    basis set group =>   1
Atom   4C    basis set group =>   1
Atom   5C    basis set group =>   1
Atom   6C    basis set group =>   1
Atom   7C    basis set group =>   1
Atom   8C    basis set group =>   1
Atom   9C    basis set group =>   1
Atom  10C    basis set group =>   1
Atom  11C    basis set group =>   1
Atom  12C    basis set group =>   1
Atom  13C    basis set group =>   1
Atom  14C    basis set group =>   1
Atom  15C    basis set group =>   1
Atom  16C    basis set group =>   1
Atom  17C    basis set group =>   1
Atom  18C    basis set group =>   1
Atom  19C    basis set group =>   1
Atom  20C    basis set group =>   1
Atom  21C    basis set group =>   1
Atom  22C    basis set group =>   1
Atom  23C    basis set group =>   1
Atom  24C    basis set group =>   1
Atom  25C    basis set group =>   1
Atom  26C    basis set group =>   1
Atom  27N    basis set group =>   2
Atom  28H    basis set group =>   3
Atom  29H    basis set group =>   3
Atom  30H    basis set group =>   3
Atom  31H    basis set group =>   3
Atom  32H    basis set group =>   3
Atom  33H    basis set group =>   3
Atom  34H    basis set group =>   3
Atom  35H    basis set group =>   3
Atom  36H    basis set group =>   3
Atom  37H    basis set group =>   3
Atom  38H    basis set group =>   3
Atom  39H    basis set group =>   3
Atom  40H    basis set group =>   3
Atom  41H    basis set group =>   3
Atom  42H    basis set group =>   3
Atom  43H    basis set group =>   3
Atom  44H    basis set group =>   3
Atom  45H    basis set group =>   3
Atom  46H    basis set group =>   3
Atom  47H    basis set group =>   3
Atom  48H    basis set group =>   3
Atom  49H    basis set group =>   3
Atom  50H    basis set group =>   3
Atom  51H    basis set group =>   3
Atom  52H    basis set group =>   3
Atom  53H    basis set group =>   3
Atom  54H    basis set group =>   3
Atom  55H    basis set group =>   3
Atom  56H    basis set group =>   3
Atom  57H    basis set group =>   3
Atom  58H    basis set group =>   3
Atom  59H    basis set group =>   3
Atom  60H    basis set group =>   3
Atom  61H    basis set group =>   3
Atom  62H    basis set group =>   3
Atom  63H    basis set group =>   3


           ************************************************************
           *        Program running with 72 parallel MPI-processes    *
           *              working on a shared directory               *
           ************************************************************
------------------------------------------------------------------------------
                           ORCA GTO INTEGRAL CALCULATION
                           -- RI-GTO INTEGRALS CHOSEN --
------------------------------------------------------------------------------

                         BASIS SET STATISTICS AND STARTUP INFO

Gaussian basis set:
 # of primitive gaussian shells          ...  700
 # of primitive gaussian functions       ... 1164
 # of contracted shells                  ...  432
 # of contracted basis functions         ...  728
 Highest angular momentum                ...    2
 Maximum contraction depth               ...    5
Auxiliary gaussian basis set:
 # of primitive gaussian shells          ... 2024
 # of primitive gaussian functions       ... 5008
 # of contracted shells                  ... 2024
 # of contracted aux-basis functions     ... 5008
 Highest angular momentum                ...    3
 Maximum contraction depth               ...    1
Ratio of auxiliary to basis functions    ...  6.88
Integral package used                  ... LIBINT
 One Electron integrals                  ... done
 Ordering auxiliary basis shells         ... done
 Integral threshhold             Thresh  ...  1.000e-10
 Primitive cut-off               TCut    ...  1.000e-11
 Pre-screening matrix                    ... done
 Shell pair data                         ... 
 Ordering of the shell pairs             ... done (   0.014 sec) 66491 of 93528 pairs
 Determination of significant pairs      ... done (   0.000 sec)
 Creation of shell pair data             ... done (   0.009 sec)
 Storage of shell pair data              ... done (   0.027 sec)
 Shell pair data done in (   0.051 sec)
 Computing two index integrals           ... done
 Cholesky decomposition of the V-matrix  ... done


Timings:
 Total evaluation time                   ...   4.374 sec (  0.073 min)
 One electron matrix time                ...   0.657 sec (  0.011 min) = 15.0%
 Schwartz matrix evaluation time         ...   0.444 sec (  0.007 min) = 10.2%
 Two index repulsion integral time       ...   0.974 sec (  0.016 min) = 22.3%
 Cholesky decomposition of V             ...   2.216 sec (  0.037 min) = 50.7%
 Three index repulsion integral time     ...   0.000 sec (  0.000 min) =  0.0%



           ************************************************************
           *        Program running with 72 parallel MPI-processes    *
           *              working on a shared directory               *
           ************************************************************
-------------------------------------------------------------------------------
                                 ORCA SCF
-------------------------------------------------------------------------------

------------
SCF SETTINGS
------------
Hamiltonian:
 Density Functional     Method          .... DFT(GTOs)
 Exchange Functional    Exchange        .... PBE
   PBE kappa parameter   XKappa         ....  0.804000
   PBE mue parameter    XMuePBE         ....  0.219520
 Correlation Functional Correlation     .... PBE
   PBE beta parameter  CBetaPBE         ....  0.066725
 LDA part of GGA corr.  LDAOpt          .... PW91-LDA
 Gradients option       PostSCFGGA      .... off
   Density functional embedding theory  .... OFF
   NL short-range parameter             ....  6.400000
 RI-approximation to the Coulomb term is turned on
   Number of auxiliary basis functions  .... 5008
   RIJ-COSX (HFX calculated with COS-X)).... on


General Settings:
 Integral files         IntName         .... zfs
 Hartree-Fock type      HFTyp           .... UHF
 Total Charge           Charge          ....   -1
 Multiplicity           Mult            ....    3
 Number of Electrons    NEL             ....  206
 Basis Dimension        Dim             ....  728
 Nuclear Repulsion      ENuc            ....   3308.0184381677 Eh

Convergence Acceleration:
 DIIS                   CNVDIIS         .... on
   Start iteration      DIISMaxIt       ....    12
   Startup error        DIISStart       ....  0.200000
   # of expansion vecs  DIISMaxEq       ....     5
   Bias factor          DIISBfac        ....   1.050
   Max. coefficient     DIISMaxC        ....  10.000
 Newton-Raphson         CNVNR           .... off
 SOSCF                  CNVSOSCF        .... off
 Level Shifting         CNVShift        .... on
   Level shift para.    LevelShift      ....    0.2500
   Turn off err/grad.   ShiftErr        ....    0.0010
 Zerner damping         CNVZerner       .... off
 Static damping         CNVDamp         .... on
   Fraction old density DampFac         ....    0.7000
   Max. Damping (<1)    DampMax         ....    0.9800
   Min. Damping (>=0)   DampMin         ....    0.0000
   Turn off err/grad.   DampErr         ....    0.1000
 Fernandez-Rico         CNVRico         .... off

SCF Procedure:
 Maximum # iterations   MaxIter         ....   125
 SCF integral mode      SCFMode         .... Direct
   Integral package                     .... LIBINT
 Reset frequency        DirectResetFreq ....    20
 Integral Threshold     Thresh          ....  1.000e-10 Eh
 Primitive CutOff       TCut            ....  1.000e-11 Eh

Convergence Tolerance:
 Convergence Check Mode ConvCheckMode   .... Total+1el-Energy
 Convergence forced     ConvForced      .... 0
 Energy Change          TolE            ....  1.000e-06 Eh
 1-El. energy change                    ....  1.000e-03 Eh
 DIIS Error             TolErr          ....  1.000e-06


Diagonalization of the overlap matrix:
Smallest eigenvalue                        ... 1.744e-04
Time for diagonalization                   ...    0.173 sec
Threshold for overlap eigenvalues          ... 1.000e-08
Number of eigenvalues below threshold      ... 0
Time for construction of square roots      ...    0.213 sec
Total time needed                          ...    0.391 sec

-------------------
DFT GRID GENERATION
-------------------

General Integration Accuracy     IntAcc      ...  4.340
Radial Grid Type                 RadialGrid  ... Gauss-Chebyshev
Angular Grid (max. acc.)         AngularGrid ... Lebedev-110
Angular grid pruning method      GridPruning ... 3 (G Style)
Weight generation scheme         WeightScheme... Becke
Basis function cutoff            BFCut       ...    1.0000e-10
Integration weight cutoff        WCut        ...    1.0000e-14
Grids for H and He will be reduced by one unit

# of grid points (after initial pruning)     ...  74998 (   0.0 sec)
# of grid points (after weights+screening)   ...  62458 (   0.1 sec)
nearest neighbour list constructed           ...    0.0 sec
Grid point re-assignment to atoms done       ...    0.0 sec
Grid point division into batches done        ...    0.1 sec
Reduced shell lists constructed in    0.1 sec

Total number of grid points                  ...    62458
Total number of batches                      ...     1006
Average number of points per batch           ...       62
Average number of grid points per atom       ...      976
Average number of shells per batch           ...   227.40 (52.64%)
Average number of basis functions per batch  ...   456.20 (62.66%)
Average number of large shells per batch     ...   171.13 (75.26%)
Average number of large basis fcns per batch ...   340.07 (74.54%)
Maximum spatial batch extension              ...   2.40,  2.44,  2.68 au
Average spatial batch extension              ...   0.02,  0.03,  0.03 au

Time for grid setup =    0.343 sec

------------------------------
INITIAL GUESS: MODEL POTENTIAL
------------------------------
Loading Hartree-Fock densities                     ... done
Calculating cut-offs                               ... done
Setting up the integral package                    ... done
Initializing the effective Hamiltonian             ... done
Starting the Coulomb interaction                   ... done (   0.1 sec)
Reading the grid                                   ... done
Mapping shells                                     ... done
Starting the XC term evaluation                    ... done (   0.2 sec)
  promolecular density results
     # of electrons  =    204.983149374
     EX              =   -156.128013837
     EC              =     -7.167477160
     EX+EC           =   -163.295490997
Transforming the Hamiltonian                       ... done (   0.1 sec)
Diagonalizing the Hamiltonian                      ... done (   0.1 sec)
Back transforming the eigenvectors                 ... done (   0.1 sec)
Now organizing SCF variables                       ... done
                      ------------------
                      INITIAL GUESS DONE (   1.1 sec)
                      ------------------
--------------------
COSX GRID GENERATION
--------------------

General Integration Accuracy     IntAcc      ...  3.340
Radial Grid Type                 RadialGrid  ... Gauss-Chebyshev
Angular Grid (max. acc.)         AngularGrid ... Lebedev-50
Angular grid pruning method      GridPruning ... 3 (G Style)
Weight generation scheme         WeightScheme... Becke
Basis function cutoff            BFCut       ...    1.0000e-10
Integration weight cutoff        WCut        ...    1.0000e-14
Grids for H and He will be reduced by one unit

# of grid points (after initial pruning)     ...  27746 (   0.0 sec)
# of grid points (after weights+screening)   ...  23383 (   0.0 sec)
nearest neighbour list constructed           ...    0.0 sec
Grid point re-assignment to atoms done       ...    0.0 sec
Grid point division into batches done        ...    0.0 sec
Reduced shell lists constructed in    0.0 sec

Total number of grid points                  ...    23383
Total number of batches                      ...      395
Average number of points per batch           ...       59
Average number of grid points per atom       ...      365
Average number of shells per batch           ...   223.71 (51.79%)
Average number of basis functions per batch  ...   447.71 (61.50%)
Average number of large shells per batch     ...   165.43 (73.95%)
Average number of large basis fcns per batch ...   331.71 (74.09%)
Maximum spatial batch extension              ...   3.10,  3.03,  3.10 au
Average spatial batch extension              ...   0.04,  0.04,  0.03 au

Overlap Fitting                  UseSFitting ... on
Constructing numerical overlap ... done (      0.0 sec)
Inverting numerical overlap    ... done (      0.0 sec)
Obtaining analytic overlap     ... done (      0.0 sec)
Final contraction and storage  ... done (      0.1 sec)


General Integration Accuracy     IntAcc      ...  3.670
Radial Grid Type                 RadialGrid  ... Gauss-Chebyshev
Angular Grid (max. acc.)         AngularGrid ... Lebedev-50
Angular grid pruning method      GridPruning ... 3 (G Style)
Weight generation scheme         WeightScheme... Becke
Basis function cutoff            BFCut       ...    1.0000e-10
Integration weight cutoff        WCut        ...    1.0000e-14
Grids for H and He will be reduced by one unit

# of grid points (after initial pruning)     ...  35464 (   0.0 sec)
# of grid points (after weights+screening)   ...  29822 (   0.0 sec)
nearest neighbour list constructed           ...    0.0 sec
Grid point re-assignment to atoms done       ...    0.0 sec
Grid point division into batches done        ...    0.0 sec
Reduced shell lists constructed in    0.0 sec

Total number of grid points                  ...    29822
Total number of batches                      ...      499
Average number of points per batch           ...       59
Average number of grid points per atom       ...      466
Average number of shells per batch           ...   226.50 (52.43%)
Average number of basis functions per batch  ...   455.25 (62.53%)
Average number of large shells per batch     ...   169.12 (74.67%)
Average number of large basis fcns per batch ...   341.12 (74.93%)
Maximum spatial batch extension              ...   3.07,  2.79,  2.88 au
Average spatial batch extension              ...   0.03,  0.03,  0.03 au

Overlap Fitting                  UseSFitting ... on
Constructing numerical overlap ... done (      0.0 sec)
Inverting numerical overlap    ... done (      0.0 sec)
Obtaining analytic overlap     ... done (      0.0 sec)
Final contraction and storage  ... done (      0.1 sec)


General Integration Accuracy     IntAcc      ...  4.010
Radial Grid Type                 RadialGrid  ... Gauss-Chebyshev
Angular Grid (max. acc.)         AngularGrid ... Lebedev-110
Angular grid pruning method      GridPruning ... 3 (G Style)
Weight generation scheme         WeightScheme... Becke
Basis function cutoff            BFCut       ...    1.0000e-10
Integration weight cutoff        WCut        ...    1.0000e-14
Grids for H and He will be reduced by one unit

# of grid points (after initial pruning)     ...  65152 (   0.0 sec)
# of grid points (after weights+screening)   ...  54551 (   0.1 sec)
nearest neighbour list constructed           ...    0.0 sec
Grid point re-assignment to atoms done       ...    0.0 sec
Grid point division into batches done        ...    0.0 sec
Reduced shell lists constructed in    0.1 sec

Total number of grid points                  ...    54551
Total number of batches                      ...      885
Average number of points per batch           ...       61
Average number of grid points per atom       ...      852
Average number of shells per batch           ...   227.07 (52.56%)
Average number of basis functions per batch  ...   454.93 (62.49%)
Average number of large shells per batch     ...   170.00 (74.87%)
Average number of large basis fcns per batch ...   338.57 (74.42%)
Maximum spatial batch extension              ...   2.48,  2.48,  2.61 au
Average spatial batch extension              ...   0.03,  0.03,  0.03 au

Overlap Fitting                  UseSFitting ... on
Constructing numerical overlap ... done (      0.1 sec)
Inverting numerical overlap    ... done (      0.0 sec)
Obtaining analytic overlap     ... done (      0.0 sec)
Final contraction and storage  ... done (      0.1 sec)

Time for X-Grid setup             =    1.252 sec
--------------
SCF ITERATIONS
--------------
ITER       Energy         Delta-E        Max-DP      RMS-DP      [F,P]     Damp
               ***  Starting incremental Fock matrix formation  ***
  0  -1102.3563573375   0.000000000000 7.93331432  0.02046800  0.1511501 0.7000
  1  -1102.7814655938  -0.425108256210 5.09888813  0.01277944  0.0656357 0.7000
                               ***Turning on DIIS***
  2  -1102.8714915699  -0.090025976094 0.81909193  0.00363788  0.0352285 0.0000
  3  -1103.1248311308  -0.253339560899 4.60934128  0.01135634  0.0323012 0.0000
  4  -1103.1580277605  -0.033196629766 1.48949592  0.00365723  0.0198659 0.0000
  5  -1103.1673814358  -0.009353675322 0.67077653  0.00161010  0.0058004 0.0000
  6  -1103.1687223571  -0.001340921234 0.45705860  0.00108502  0.0013995 0.0000
  7  -1103.1689294196  -0.000207062540 0.27654766  0.00064289  0.0022475 0.0000
  8  -1103.1690344980  -0.000105078386 0.58187329  0.00132596  0.0005476 0.0000
  9  -1103.1691014723  -0.000066974306 0.10650442  0.00029225  0.0007560 0.0000
 10  -1103.1691080408  -0.000006568493 0.09815122  0.00022934  0.0005495 0.0000
 11  -1103.1691127663  -0.000004725483 0.03086284  0.00006709  0.0003915 0.0000
 12  -1103.1691147548  -0.000001988529 0.01055097  0.00001996  0.0000734 0.0000
 13  -1103.1691145649   0.000000189879 0.00554702  0.00001248  0.0000831 0.0000
                 **** Energy Check signals convergence ****

               *****************************************************
               *                     SUCCESS                       *
               *           SCF CONVERGED AFTER  14 CYCLES          *
               *****************************************************

Setting up the final grid:

General Integration Accuracy     IntAcc      ...  4.670
Radial Grid Type                 RadialGrid  ... Gauss-Chebyshev
Angular Grid (max. acc.)         AngularGrid ... Lebedev-302
Angular grid pruning method      GridPruning ... 3 (G Style)
Weight generation scheme         WeightScheme... Becke
Basis function cutoff            BFCut       ...    1.0000e-10
Integration weight cutoff        WCut        ...    1.0000e-14
Grids for H and He will be reduced by one unit

# of grid points (after initial pruning)     ... 296120 (   0.0 sec)
# of grid points (after weights+screening)   ... 239091 (   0.2 sec)
nearest neighbour list constructed           ...    0.0 sec
Grid point re-assignment to atoms done       ...    0.1 sec
Grid point division into batches done        ...    0.8 sec
Reduced shell lists constructed in    0.9 sec

Total number of grid points                  ...   239091
Total number of batches                      ...     3771
Average number of points per batch           ...       63
Average number of grid points per atom       ...     3736
Average number of shells per batch           ...   226.72 (52.48%)
Average number of basis functions per batch  ...   456.20 (62.67%)
Average number of large shells per batch     ...   168.26 (74.21%)
Average number of large basis fcns per batch ...   332.70 (72.93%)
Maximum spatial batch extension              ...   1.84,  1.79,  1.70 au
Average spatial batch extension              ...   0.02,  0.02,  0.02 au

Final grid set up in    1.4 sec
Final integration                            ... done (   0.9 sec)
Change in XC energy                          ...     0.000892330
Integrated number of electrons               ...   206.001590318
Previous integrated no of electrons          ...   206.004449249

----------------
TOTAL SCF ENERGY
----------------

Total Energy       :        -1103.16822243 Eh          -30018.73346 eV

Components:
Nuclear Repulsion  :         3308.01843817 Eh           90015.75802 eV
Electronic Energy  :        -4411.18666060 Eh         -120034.49147 eV
One Electron Energy:        -8103.21033316 Eh         -220499.56315 eV
Two Electron Energy:         3692.02367256 Eh          100465.07168 eV

Virial components:
Potential Energy   :        -2203.45043274 Eh          -59958.93453 eV
Kinetic Energy     :         1100.28221031 Eh           29940.20107 eV
Virial Ratio       :            2.00262297


DFT components:
N(Alpha)           :      104.000776112880 electrons
N(Beta)            :      102.000814205366 electrons
N(Total)           :      206.001590318246 electrons
E(X)               :     -159.755928887291 Eh       
E(C)               :       -7.077195718927 Eh       
E(XC)              :     -166.833124606217 Eh       
DFET-embed. en.    :        0.000000000000 Eh       

---------------
SCF CONVERGENCE
---------------

  Last Energy change         ...   -1.9401e-07  Tolerance :   1.0000e-06
  Last MAX-Density change    ...    7.1700e-04  Tolerance :   1.0000e-05
  Last RMS-Density change    ...    1.8907e-06  Tolerance :   1.0000e-06
  Last DIIS Error            ...    3.3955e-05  Tolerance :   1.0000e-06

             **** THE GBW FILE WAS UPDATED (zfs.gbw) ****
             **** DENSITY FILE WAS UPDATED (zfs.scfp) ****
             **** ENERGY FILE WAS UPDATED (zfs.en.tmp) ****
----------------------
UHF SPIN CONTAMINATION
----------------------

Warning: in a DFT calculation there is little theoretical justification to 
         calculate <S**2> as in Hartree-Fock theory. We will do it anyways
         but you should keep in mind that the values have only limited relevance

Expectation value of <S**2>     :     2.011080
Ideal value S*(S+1) for S=1.0   :     2.000000
Deviation                       :     0.011080

             **** THE GBW FILE WAS UPDATED (zfs.gbw) ****
             **** DENSITY FILE WAS UPDATED (zfs.scfp) ****
----------------
ORBITAL ENERGIES
----------------
                 SPIN UP ORBITALS
  NO   OCC          E(Eh)            E(eV) 
   0   1.0000     -13.855806      -377.0356 
   1   1.0000      -9.801626      -266.7158 
   2   1.0000      -9.801277      -266.7063 
   3   1.0000      -9.801145      -266.7027 
   4   1.0000      -9.763060      -265.6664 
   5   1.0000      -9.762923      -265.6626 
   6   1.0000      -9.762855      -265.6608 
   7   1.0000      -9.762828      -265.6600 
   8   1.0000      -9.762710      -265.6568 
   9   1.0000      -9.762681      -265.6560 
  10   1.0000      -9.755830      -265.4696 
  11   1.0000      -9.755781      -265.4683 
  12   1.0000      -9.755515      -265.4611 
  13   1.0000      -9.749179      -265.2886 
  14   1.0000      -9.749033      -265.2847 
  15   1.0000      -9.748996      -265.2837 
  16   1.0000      -9.748420      -265.2680 
  17   1.0000      -9.748407      -265.2676 
  18   1.0000      -9.748288      -265.2644 
  19   1.0000      -9.740069      -265.0408 
  20   1.0000      -9.739646      -265.0292 
  21   1.0000      -9.739505      -265.0254 
  22   1.0000      -9.735875      -264.9266 
  23   1.0000      -9.735412      -264.9140 
  24   1.0000      -9.735401      -264.9137 
  25   1.0000      -9.734993      -264.9026 
  26   1.0000      -9.734474      -264.8885 
  27   1.0000      -9.734323      -264.8844 
  28   1.0000      -0.729751       -19.8575 
  29   1.0000      -0.667580       -18.1658 
  30   1.0000      -0.652423       -17.7533 
  31   1.0000      -0.652330       -17.7508 
  32   1.0000      -0.609405       -16.5827 
  33   1.0000      -0.598165       -16.2769 
  34   1.0000      -0.598100       -16.2751 
  35   1.0000      -0.582546       -15.8519 
  36   1.0000      -0.582423       -15.8485 
  37   1.0000      -0.545805       -14.8521 
  38   1.0000      -0.521664       -14.1952 
  39   1.0000      -0.521558       -14.1923 
  40   1.0000      -0.519012       -14.1230 
  41   1.0000      -0.515860       -14.0373 
  42   1.0000      -0.515801       -14.0357 
  43   1.0000      -0.501971       -13.6593 
  44   1.0000      -0.444686       -12.1005 
  45   1.0000      -0.444630       -12.0990 
  46   1.0000      -0.423894       -11.5347 
  47   1.0000      -0.405305       -11.0289 
  48   1.0000      -0.405277       -11.0281 
  49   1.0000      -0.400342       -10.8939 
  50   1.0000      -0.397624       -10.8199 
  51   1.0000      -0.384115       -10.4523 
  52   1.0000      -0.384005       -10.4493 
  53   1.0000      -0.358477        -9.7547 
  54   1.0000      -0.358017        -9.7421 
  55   1.0000      -0.357901        -9.7390 
  56   1.0000      -0.346541        -9.4299 
  57   1.0000      -0.312921        -8.5150 
  58   1.0000      -0.309014        -8.4087 
  59   1.0000      -0.308932        -8.4065 
  60   1.0000      -0.301363        -8.2005 
  61   1.0000      -0.301219        -8.1966 
  62   1.0000      -0.282118        -7.6768 
  63   1.0000      -0.279312        -7.6005 
  64   1.0000      -0.279225        -7.5981 
  65   1.0000      -0.275750        -7.5035 
  66   1.0000      -0.275714        -7.5026 
  67   1.0000      -0.242720        -6.6047 
  68   1.0000      -0.242672        -6.6034 
  69   1.0000      -0.238295        -6.4843 
  70   1.0000      -0.231144        -6.2897 
  71   1.0000      -0.228497        -6.2177 
  72   1.0000      -0.226353        -6.1594 
  73   1.0000      -0.226312        -6.1583 
  74   1.0000      -0.212511        -5.7827 
  75   1.0000      -0.212455        -5.7812 
  76   1.0000      -0.210185        -5.7194 
  77   1.0000      -0.197076        -5.3627 
  78   1.0000      -0.190655        -5.1880 
  79   1.0000      -0.190631        -5.1873 
  80   1.0000      -0.179341        -4.8801 
  81   1.0000      -0.179301        -4.8790 
  82   1.0000      -0.171501        -4.6668 
  83   1.0000      -0.166837        -4.5399 
  84   1.0000      -0.166774        -4.5381 
  85   1.0000      -0.161140        -4.3848 
  86   1.0000      -0.158725        -4.3191 
  87   1.0000      -0.156245        -4.2516 
  88   1.0000      -0.156183        -4.2499 
  89   1.0000      -0.146975        -3.9994 
  90   1.0000      -0.146916        -3.9978 
  91   1.0000      -0.135143        -3.6774 
  92   1.0000      -0.119952        -3.2641 
  93   1.0000      -0.119872        -3.2619 
  94   1.0000      -0.095579        -2.6008 
  95   1.0000      -0.095547        -2.6000 
  96   1.0000      -0.092655        -2.5213 
  97   1.0000      -0.077135        -2.0990 
  98   1.0000      -0.059049        -1.6068 
  99   1.0000      -0.056945        -1.5496 
 100   1.0000      -0.056476        -1.5368 
 101   1.0000       0.001964         0.0534 
 102   1.0000       0.047227         1.2851 
 103   1.0000       0.047621         1.2958 
 104   0.0000       0.096843         2.6352 
 105   0.0000       0.113756         3.0955 
 106   0.0000       0.116241         3.1631 
 107   0.0000       0.117217         3.1896 
 108   0.0000       0.124417         3.3855 
 109   0.0000       0.124853         3.3974 
 110   0.0000       0.126553         3.4437 
 111   0.0000       0.130525         3.5518 
 112   0.0000       0.131141         3.5685 
 113   0.0000       0.141253         3.8437 
 114   0.0000       0.142003         3.8641 
 115   0.0000       0.143831         3.9138 
 116   0.0000       0.150309         4.0901 
 117   0.0000       0.151118         4.1121 
 118   0.0000       0.153067         4.1652 
 119   0.0000       0.155479         4.2308 
 120   0.0000       0.178931         4.8689 
 121   0.0000       0.180268         4.9053 
 122   0.0000       0.184354         5.0165 
 123   0.0000       0.184469         5.0197 
 124   0.0000       0.184699         5.0259 
 125   0.0000       0.185420         5.0455 
 126   0.0000       0.193232         5.2581 
 127   0.0000       0.194099         5.2817 
 128   0.0000       0.195885         5.3303 
 129   0.0000       0.228158         6.2085 
 130   0.0000       0.228415         6.2155 
 131   0.0000       0.229950         6.2572 
 132   0.0000       0.239760         6.5242 
 133   0.0000       0.246428         6.7056 
 134   0.0000       0.249853         6.7988 
 135   0.0000       0.249896         6.8000 
 136   0.0000       0.251891         6.8543 
 137   0.0000       0.252365         6.8672 
 138   0.0000       0.275187         7.4882 
 139   0.0000       0.277193         7.5428 
 140   0.0000       0.277432         7.5493 
 141   0.0000       0.283616         7.7176 
 142   0.0000       0.283948         7.7266 
 143   0.0000       0.292212         7.9515 
 144   0.0000       0.292606         7.9622 
 145   0.0000       0.292752         7.9662 
 146   0.0000       0.296697         8.0735 
 147   0.0000       0.297119         8.0850 
 148   0.0000       0.297766         8.1026 
 149   0.0000       0.299509         8.1500 
 150   0.0000       0.308420         8.3925 
 151   0.0000       0.308493         8.3945 
 152   0.0000       0.311281         8.4704 
 153   0.0000       0.311697         8.4817 
 154   0.0000       0.313935         8.5426 
 155   0.0000       0.327448         8.9103 
 156   0.0000       0.331947         9.0327 
 157   0.0000       0.332044         9.0354 
 158   0.0000       0.340919         9.2769 
 159   0.0000       0.343636         9.3508 
 160   0.0000       0.344083         9.3630 
 161   0.0000       0.355103         9.6629 
 162   0.0000       0.355408         9.6712 
 163   0.0000       0.356710         9.7066 
 164   0.0000       0.366173         9.9641 
 165   0.0000       0.372357        10.1323 
 166   0.0000       0.373443        10.1619 
 167   0.0000       0.373663        10.1679 
 168   0.0000       0.381898        10.3920 
 169   0.0000       0.382145        10.3987 
 170   0.0000       0.382543        10.4095 
 171   0.0000       0.388646        10.5756 
 172   0.0000       0.389692        10.6041 
 173   0.0000       0.389857        10.6086 
 174   0.0000       0.392819        10.6892 
 175   0.0000       0.393381        10.7044 
 176   0.0000       0.394477        10.7343 
 177   0.0000       0.396984        10.8025 
 178   0.0000       0.398395        10.8409 
 179   0.0000       0.410711        11.1760 
 180   0.0000       0.411590        11.1999 
 181   0.0000       0.413544        11.2531 
 182   0.0000       0.427325        11.6281 
 183   0.0000       0.428013        11.6468 
 184   0.0000       0.428477        11.6594 
 185   0.0000       0.428880        11.6704 
 186   0.0000       0.429208        11.6793 
 187   0.0000       0.431744        11.7483 
 188   0.0000       0.432282        11.7630 
 189   0.0000       0.434098        11.8124 
 190   0.0000       0.436524        11.8784 
 191   0.0000       0.437988        11.9183 
 192   0.0000       0.438312        11.9271 
 193   0.0000       0.451074        12.2743 
 194   0.0000       0.460445        12.5293 
 195   0.0000       0.461256        12.5514 
 196   0.0000       0.467396        12.7185 
 197   0.0000       0.471014        12.8169 
 198   0.0000       0.471256        12.8235 
 199   0.0000       0.472595        12.8600 
 200   0.0000       0.482395        13.1266 
 201   0.0000       0.483234        13.1495 
 202   0.0000       0.498480        13.5643 
 203   0.0000       0.507989        13.8231 
 204   0.0000       0.509314        13.8591 
 205   0.0000       0.510878        13.9017 
 206   0.0000       0.515936        14.0393 
 207   0.0000       0.516372        14.0512 
 208   0.0000       0.527129        14.3439 
 209   0.0000       0.535189        14.5632 
 210   0.0000       0.535926        14.5833 
 211   0.0000       0.536406        14.5963 
 212   0.0000       0.541604        14.7378 
 213   0.0000       0.547121        14.8879 
 214   0.0000       0.547559        14.8998 
 215   0.0000       0.551290        15.0014 
 216   0.0000       0.557852        15.1799 
 217   0.0000       0.558927        15.2092 
 218   0.0000       0.559485        15.2244 
 219   0.0000       0.575582        15.6624 
 220   0.0000       0.579608        15.7719 
 221   0.0000       0.580201        15.7881 
 222   0.0000       0.590303        16.0630 
 223   0.0000       0.591257        16.0889 
 224   0.0000       0.599925        16.3248 
 225   0.0000       0.603021        16.4090 
 226   0.0000       0.604227        16.4419 
 227   0.0000       0.607912        16.5421 
 228   0.0000       0.616396        16.7730 
 229   0.0000       0.617731        16.8093 
 230   0.0000       0.619333        16.8529 
 231   0.0000       0.620593        16.8872 
 232   0.0000       0.621038        16.8993 
 233   0.0000       0.622888        16.9497 
 234   0.0000       0.624188        16.9850 
 235   0.0000       0.625273        17.0145 
 236   0.0000       0.633960        17.2509 
 237   0.0000       0.644367        17.5341 
 238   0.0000       0.644981        17.5508 
 239   0.0000       0.646587        17.5945 
 240   0.0000       0.657749        17.8983 
 241   0.0000       0.658299        17.9132 
 242   0.0000       0.664310        18.0768 
 243   0.0000       0.679034        18.4775 
 244   0.0000       0.697638        18.9837 
 245   0.0000       0.698581        19.0093 
 246   0.0000       0.702600        19.1187 
 247   0.0000       0.703318        19.1383 
 248   0.0000       0.708171        19.2703 
 249   0.0000       0.713678        19.4202 
 250   0.0000       0.714095        19.4315 
 251   0.0000       0.714577        19.4446 
 252   0.0000       0.729752        19.8576 
 253   0.0000       0.736048        20.0289 
 254   0.0000       0.737453        20.0671 
 255   0.0000       0.737627        20.0719 
 256   0.0000       0.745096        20.2751 
 257   0.0000       0.746035        20.3006 
 258   0.0000       0.757490        20.6123 
 259   0.0000       0.758058        20.6278 
 260   0.0000       0.761045        20.7091 
 261   0.0000       0.761413        20.7191 
 262   0.0000       0.762026        20.7358 
 263   0.0000       0.779147        21.2017 
 264   0.0000       0.812074        22.0976 
 265   0.0000       0.827881        22.5278 
 266   0.0000       0.852548        23.1990 
 267   0.0000       0.853121        23.2146 
 268   0.0000       0.856979        23.3196 
 269   0.0000       0.857107        23.3231 
 270   0.0000       0.895976        24.3808 
 271   0.0000       0.898409        24.4470 
 272   0.0000       0.906648        24.6711 
 273   0.0000       0.907595        24.6969 
 274   0.0000       0.915815        24.9206 
 275   0.0000       0.922923        25.1140 
 276   0.0000       0.924740        25.1634 
 277   0.0000       0.942248        25.6399 
 278   0.0000       0.950796        25.8725 
 279   0.0000       0.951862        25.9015 
 280   0.0000       0.956243        26.0207 
 281   0.0000       0.957502        26.0550 
 282   0.0000       0.959038        26.0967 
 283   0.0000       0.961577        26.1658 
 284   0.0000       0.964351        26.2413 
 285   0.0000       0.965791        26.2805 
 286   0.0000       0.984227        26.7822 
 287   0.0000       1.007566        27.4173 
 288   0.0000       1.010607        27.5000 
 289   0.0000       1.011430        27.5224 
 290   0.0000       1.016055        27.6483 
 291   0.0000       1.017195        27.6793 
 292   0.0000       1.018030        27.7020 
 293   0.0000       1.030030        28.0285 
 294   0.0000       1.030361        28.0375 
 295   0.0000       1.039775        28.2937 
 296   0.0000       1.040346        28.3093 
 297   0.0000       1.041330        28.3360 
 298   0.0000       1.046293        28.4711 
 299   0.0000       1.046689        28.4819 
 300   0.0000       1.054479        28.6938 
 301   0.0000       1.060211        28.8498 
 302   0.0000       1.060460        28.8566 
 303   0.0000       1.061298        28.8794 
 304   0.0000       1.066910        29.0321 
 305   0.0000       1.067088        29.0369 
 306   0.0000       1.070335        29.1253 
 307   0.0000       1.088266        29.6132 
 308   0.0000       1.095059        29.7981 
 309   0.0000       1.096390        29.8343 
 310   0.0000       1.124972        30.6120 
 311   0.0000       1.131062        30.7778 
 312   0.0000       1.131522        30.7903 
 313   0.0000       1.132479        30.8163 
 314   0.0000       1.135590        30.9010 
 315   0.0000       1.135709        30.9042 
 316   0.0000       1.140277        31.0285 
 317   0.0000       1.140793        31.0426 
 318   0.0000       1.142073        31.0774 
 319   0.0000       1.146146        31.1882 
 320   0.0000       1.147201        31.2169 
 321   0.0000       1.148536        31.2533 
 322   0.0000       1.148728        31.2585 
 323   0.0000       1.153459        31.3872 
 324   0.0000       1.153879        31.3986 
 325   0.0000       1.154626        31.4190 
 326   0.0000       1.154830        31.4245 
 327   0.0000       1.160621        31.5821 
 328   0.0000       1.161333        31.6015 
 329   0.0000       1.170238        31.8438 
 330   0.0000       1.204170        32.7671 
 331   0.0000       1.204913        32.7873 
 332   0.0000       1.205715        32.8092 
 333   0.0000       1.206007        32.8171 
 334   0.0000       1.208774        32.8924 
 335   0.0000       1.209307        32.9069 
 336   0.0000       1.214659        33.0526 
 337   0.0000       1.214924        33.0598 
 338   0.0000       1.215509        33.0757 
 339   0.0000       1.216306        33.0974 
 340   0.0000       1.233035        33.5526 
 341   0.0000       1.234137        33.5826 
 342   0.0000       1.249559        34.0022 
 343   0.0000       1.270399        34.5693 
 344   0.0000       1.279491        34.8167 
 345   0.0000       1.279655        34.8212 
 346   0.0000       1.282249        34.8918 
 347   0.0000       1.290083        35.1049 
 348   0.0000       1.293429        35.1960 
 349   0.0000       1.295550        35.2537 
 350   0.0000       1.306857        35.5614 
 351   0.0000       1.308567        35.6079 
 352   0.0000       1.313592        35.7447 
 353   0.0000       1.327687        36.1282 
 354   0.0000       1.330203        36.1967 
 355   0.0000       1.331600        36.2347 
 356   0.0000       1.368544        37.2400 
 357   0.0000       1.368794        37.2468 
 358   0.0000       1.381929        37.6042 
 359   0.0000       1.384825        37.6830 
 360   0.0000       1.385293        37.6957 
 361   0.0000       1.402595        38.1665 
 362   0.0000       1.404468        38.2175 
 363   0.0000       1.404824        38.2272 
 364   0.0000       1.411703        38.4144 
 365   0.0000       1.428783        38.8792 
 366   0.0000       1.429436        38.8969 
 367   0.0000       1.438137        39.1337 
 368   0.0000       1.440307        39.1927 
 369   0.0000       1.441179        39.2165 
 370   0.0000       1.454882        39.5893 
 371   0.0000       1.455476        39.6055 
 372   0.0000       1.464007        39.8376 
 373   0.0000       1.485151        40.4130 
 374   0.0000       1.486532        40.4506 
 375   0.0000       1.487687        40.4820 
 376   0.0000       1.496745        40.7285 
 377   0.0000       1.497460        40.7480 
 378   0.0000       1.498096        40.7653 
 379   0.0000       1.505265        40.9603 
 380   0.0000       1.507481        41.0207 
 381   0.0000       1.507619        41.0244 
 382   0.0000       1.511537        41.1310 
 383   0.0000       1.518491        41.3203 
 384   0.0000       1.518920        41.3319 
 385   0.0000       1.530612        41.6501 
 386   0.0000       1.533106        41.7179 
 387   0.0000       1.533273        41.7225 
 388   0.0000       1.539294        41.8863 
 389   0.0000       1.540132        41.9091 
 390   0.0000       1.540572        41.9211 
 391   0.0000       1.553885        42.2833 
 392   0.0000       1.565322        42.5946 
 393   0.0000       1.565667        42.6040 
 394   0.0000       1.566109        42.6160 
 395   0.0000       1.571400        42.7600 
 396   0.0000       1.571970        42.7755 
 397   0.0000       1.583253        43.0825 
 398   0.0000       1.598536        43.4984 
 399   0.0000       1.598838        43.5066 
 400   0.0000       1.611946        43.8633 
 401   0.0000       1.615148        43.9504 
 402   0.0000       1.616571        43.9891 
 403   0.0000       1.621121        44.1129 
 404   0.0000       1.641851        44.6770 
 405   0.0000       1.645363        44.7726 
 406   0.0000       1.650796        44.9205 
 407   0.0000       1.651588        44.9420 
 408   0.0000       1.662611        45.2420 
 409   0.0000       1.662826        45.2478 
 410   0.0000       1.668155        45.3928 
 411   0.0000       1.668982        45.4153 
 412   0.0000       1.685876        45.8750 
 413   0.0000       1.686661        45.8964 
 414   0.0000       1.687944        45.9313 
 415   0.0000       1.688074        45.9348 
 416   0.0000       1.688494        45.9462 
 417   0.0000       1.707960        46.4760 
 418   0.0000       1.731493        47.1163 
 419   0.0000       1.731825        47.1253 
 420   0.0000       1.735848        47.2348 
 421   0.0000       1.744476        47.4696 
 422   0.0000       1.745086        47.4862 
 423   0.0000       1.749844        47.6157 
 424   0.0000       1.752262        47.6815 
 425   0.0000       1.753332        47.7106 
 426   0.0000       1.763190        47.9788 
 427   0.0000       1.763630        47.9908 
 428   0.0000       1.781220        48.4695 
 429   0.0000       1.800987        49.0073 
 430   0.0000       1.801583        49.0236 
 431   0.0000       1.806663        49.1618 
 432   0.0000       1.807167        49.1755 
 433   0.0000       1.812114        49.3101 
 434   0.0000       1.812586        49.3230 
 435   0.0000       1.819386        49.5080 
 436   0.0000       1.819463        49.5101 
 437   0.0000       1.825058        49.6623 
 438   0.0000       1.832353        49.8609 
 439   0.0000       1.832419        49.8627 
 440   0.0000       1.835633        49.9501 
 441   0.0000       1.840625        50.0860 
 442   0.0000       1.840964        50.0952 
 443   0.0000       1.851102        50.3710 
 444   0.0000       1.855632        50.4943 
 445   0.0000       1.856130        50.5079 
 446   0.0000       1.857391        50.5422 
 447   0.0000       1.857985        50.5584 
 448   0.0000       1.858643        50.5762 
 449   0.0000       1.869962        50.8842 
 450   0.0000       1.905737        51.8577 
 451   0.0000       1.905910        51.8625 
 452   0.0000       1.906867        51.8885 
 453   0.0000       1.926006        52.4093 
 454   0.0000       1.930457        52.5304 
 455   0.0000       1.933198        52.6050 
 456   0.0000       1.939444        52.7750 
 457   0.0000       1.939879        52.7868 
 458   0.0000       1.943646        52.8893 
 459   0.0000       1.944253        52.9058 
 460   0.0000       1.950593        53.0783 
 461   0.0000       1.950931        53.0875 
 462   0.0000       1.967054        53.5263 
 463   0.0000       1.969118        53.5824 
 464   0.0000       1.971198        53.6390 
 465   0.0000       1.971297        53.6417 
 466   0.0000       1.993280        54.2399 
 467   0.0000       1.997142        54.3450 
 468   0.0000       1.997629        54.3582 
 469   0.0000       2.006906        54.6107 
 470   0.0000       2.007294        54.6212 
 471   0.0000       2.015141        54.8348 
 472   0.0000       2.016913        54.8830 
 473   0.0000       2.017209        54.8910 
 474   0.0000       2.024137        55.0796 
 475   0.0000       2.032889        55.3177 
 476   0.0000       2.033155        55.3249 
 477   0.0000       2.039799        55.5058 
 478   0.0000       2.039877        55.5079 
 479   0.0000       2.043130        55.5964 
 480   0.0000       2.052492        55.8512 
 481   0.0000       2.053048        55.8663 
 482   0.0000       2.069138        56.3041 
 483   0.0000       2.081831        56.6495 
 484   0.0000       2.084635        56.7258 
 485   0.0000       2.086971        56.7894 
 486   0.0000       2.087142        56.7940 
 487   0.0000       2.105359        57.2897 
 488   0.0000       2.105676        57.2984 
 489   0.0000       2.110341        57.4253 
 490   0.0000       2.118461        57.6463 
 491   0.0000       2.119011        57.6612 
 492   0.0000       2.124759        57.8176 
 493   0.0000       2.125975        57.8507 
 494   0.0000       2.126634        57.8687 
 495   0.0000       2.151084        58.5340 
 496   0.0000       2.162835        58.8537 
 497   0.0000       2.179062        59.2953 
 498   0.0000       2.179532        59.3081 
 499   0.0000       2.193279        59.6822 
 500   0.0000       2.209564        60.1253 
 501   0.0000       2.213456        60.2312 
 502   0.0000       2.213504        60.2325 
 503   0.0000       2.224246        60.5248 
 504   0.0000       2.224763        60.5389 
 505   0.0000       2.225312        60.5538 
 506   0.0000       2.229380        60.6645 
 507   0.0000       2.229636        60.6715 
 508   0.0000       2.250521        61.2398 
 509   0.0000       2.250570        61.2411 
 510   0.0000       2.274361        61.8885 
 511   0.0000       2.275154        61.9101 
 512   0.0000       2.290872        62.3378 
 513   0.0000       2.296117        62.4805 
 514   0.0000       2.307714        62.7961 
 515   0.0000       2.307890        62.8009 
 516   0.0000       2.314062        62.9688 
 517   0.0000       2.326194        63.2990 
 518   0.0000       2.347896        63.8895 
 519   0.0000       2.348118        63.8955 
 520   0.0000       2.358909        64.1892 
 521   0.0000       2.359517        64.2057 
 522   0.0000       2.359655        64.2095 
 523   0.0000       2.395113        65.1744 
 524   0.0000       2.395633        65.1885 
 525   0.0000       2.417576        65.7856 
 526   0.0000       2.423784        65.9545 
 527   0.0000       2.423969        65.9595 
 528   0.0000       2.426386        66.0253 
 529   0.0000       2.435576        66.2754 
 530   0.0000       2.435771        66.2807 
 531   0.0000       2.446258        66.5661 
 532   0.0000       2.456537        66.8458 
 533   0.0000       2.456923        66.8563 
 534   0.0000       2.468088        67.1601 
 535   0.0000       2.468170        67.1623 
 536   0.0000       2.474000        67.3210 
 537   0.0000       2.479402        67.4679 
 538   0.0000       2.511415        68.3391 
 539   0.0000       2.511549        68.3427 
 540   0.0000       2.522265        68.6343 
 541   0.0000       2.550448        69.4012 
 542   0.0000       2.564734        69.7900 
 543   0.0000       2.565105        69.8001 
 544   0.0000       2.584089        70.3166 
 545   0.0000       2.588132        70.4267 
 546   0.0000       2.599640        70.7398 
 547   0.0000       2.600479        70.7626 
 548   0.0000       2.616837        71.2077 
 549   0.0000       2.617079        71.2143 
 550   0.0000       2.632800        71.6421 
 551   0.0000       2.633133        71.6512 
 552   0.0000       2.633338        71.6568 
 553   0.0000       2.671340        72.6909 
 554   0.0000       2.682540        72.9956 
 555   0.0000       2.694363        73.3173 
 556   0.0000       2.695365        73.3446 
 557   0.0000       2.739688        74.5507 
 558   0.0000       2.745178        74.7001 
 559   0.0000       2.747713        74.7691 
[...]
 521( 0) :     2.359518 a.u.    64.206 eV
 522( 0) :     2.359658 a.u.    64.210 eV
 523( 0) :     2.395113 a.u.    65.174 eV
 524( 0) :     2.395636 a.u.    65.189 eV
 525( 0) :     2.417579 a.u.    65.786 eV
 526( 0) :     2.423787 a.u.    65.955 eV
 527( 0) :     2.423971 a.u.    65.960 eV
 528( 0) :     2.426391 a.u.    66.025 eV
 529( 0) :     2.435577 a.u.    66.275 eV
 530( 0) :     2.435773 a.u.    66.281 eV
 531( 0) :     2.446259 a.u.    66.566 eV
 532( 0) :     2.456541 a.u.    66.846 eV
 533( 0) :     2.456926 a.u.    66.856 eV
 534( 0) :     2.468091 a.u.    67.160 eV
 535( 0) :     2.468172 a.u.    67.162 eV
 536( 0) :     2.474004 a.u.    67.321 eV
 537( 0) :     2.479400 a.u.    67.468 eV
 538( 0) :     2.511416 a.u.    68.339 eV
 539( 0) :     2.511551 a.u.    68.343 eV
 540( 0) :     2.522265 a.u.    68.634 eV
 541( 0) :     2.550451 a.u.    69.401 eV
 542( 0) :     2.564734 a.u.    69.790 eV
 543( 0) :     2.565103 a.u.    69.800 eV
 544( 0) :     2.584094 a.u.    70.317 eV
 545( 0) :     2.588125 a.u.    70.426 eV
 546( 0) :     2.599641 a.u.    70.740 eV
 547( 0) :     2.600477 a.u.    70.763 eV
 548( 0) :     2.616836 a.u.    71.208 eV
 549( 0) :     2.617077 a.u.    71.214 eV
 550( 0) :     2.632801 a.u.    71.642 eV
 551( 0) :     2.633134 a.u.    71.651 eV
 552( 0) :     2.633338 a.u.    71.657 eV
 553( 0) :     2.671341 a.u.    72.691 eV
 554( 0) :     2.682541 a.u.    72.996 eV
 555( 0) :     2.694363 a.u.    73.317 eV
 556( 0) :     2.695364 a.u.    73.345 eV
 557( 0) :     2.739693 a.u.    74.551 eV
 558( 0) :     2.745180 a.u.    74.700 eV
 559( 0) :     2.747715 a.u.    74.769 eV
 560( 0) :     2.747809 a.u.    74.772 eV
 561( 0) :     2.757702 a.u.    75.041 eV
 562( 0) :     2.757969 a.u.    75.048 eV
 563( 0) :     2.768035 a.u.    75.322 eV
 564( 0) :     2.768677 a.u.    75.340 eV
 565( 0) :     2.777243 a.u.    75.573 eV
 566( 0) :     2.785442 a.u.    75.796 eV
 567( 0) :     2.785626 a.u.    75.801 eV
 568( 0) :     2.791069 a.u.    75.949 eV
 569( 0) :     2.795685 a.u.    76.074 eV
 570( 0) :     2.796446 a.u.    76.095 eV
 571( 0) :     2.798727 a.u.    76.157 eV
 572( 0) :     2.818308 a.u.    76.690 eV
 573( 0) :     2.819891 a.u.    76.733 eV
 574( 0) :     2.856380 a.u.    77.726 eV
 575( 0) :     2.859130 a.u.    77.801 eV
 576( 0) :     2.860513 a.u.    77.839 eV
 577( 0) :     2.875369 a.u.    78.243 eV
 578( 0) :     2.875779 a.u.    78.254 eV
 579( 0) :     2.910068 a.u.    79.187 eV
 580( 0) :     2.911312 a.u.    79.221 eV
 581( 0) :     2.922445 a.u.    79.524 eV
 582( 0) :     2.923080 a.u.    79.541 eV
 583( 0) :     2.925711 a.u.    79.613 eV
 584( 0) :     2.933824 a.u.    79.833 eV
 585( 0) :     2.962500 a.u.    80.614 eV
 586( 0) :     2.964195 a.u.    80.660 eV
 587( 0) :     2.974959 a.u.    80.953 eV
 588( 0) :     2.985817 a.u.    81.248 eV
 589( 0) :     2.986936 a.u.    81.279 eV
 590( 0) :     3.062588 a.u.    83.337 eV
 591( 0) :     3.063705 a.u.    83.368 eV
 592( 0) :     3.067065 a.u.    83.459 eV
 593( 0) :     3.140591 a.u.    85.460 eV
 594( 0) :     3.800269 a.u.   103.411 eV
 595( 0) :     3.805176 a.u.   103.544 eV
 596( 0) :     3.836412 a.u.   104.394 eV
 597( 0) :     3.850064 a.u.   104.766 eV
 598( 0) :     3.886295 a.u.   105.751 eV
 599( 0) :     3.887895 a.u.   105.795 eV
 600( 0) :     5.167526 a.u.   140.616 eV
 601( 0) :     5.167635 a.u.   140.619 eV
 602( 0) :     5.176452 a.u.   140.858 eV
 603( 0) :     5.181830 a.u.   141.005 eV
 604( 0) :     5.182297 a.u.   141.017 eV
 605( 0) :     5.184844 a.u.   141.087 eV
 606( 0) :     5.280464 a.u.   143.689 eV
 607( 0) :     5.280644 a.u.   143.694 eV
 608( 0) :     5.285604 a.u.   143.829 eV
 609( 0) :     5.287439 a.u.   143.879 eV
 610( 0) :     5.287564 a.u.   143.882 eV
 611( 0) :     5.289465 a.u.   143.934 eV
 612( 0) :     5.298154 a.u.   144.170 eV
 613( 0) :     5.298324 a.u.   144.175 eV
 614( 0) :     5.300744 a.u.   144.241 eV
 615( 0) :     5.318645 a.u.   144.728 eV
 616( 0) :     5.319169 a.u.   144.742 eV
 617( 0) :     5.338237 a.u.   145.261 eV
 618( 0) :     5.371227 a.u.   146.159 eV
 619( 0) :     5.371765 a.u.   146.173 eV
 620( 0) :     5.383297 a.u.   146.487 eV
 621( 0) :     5.398938 a.u.   146.913 eV
 622( 0) :     5.399806 a.u.   146.936 eV
 623( 0) :     5.403014 a.u.   147.023 eV
 624( 0) :     5.417040 a.u.   147.405 eV
 625( 0) :     5.455523 a.u.   148.452 eV
 626( 0) :     5.456219 a.u.   148.471 eV
 627( 0) :     5.456418 a.u.   148.477 eV
 628( 0) :     5.486134 a.u.   149.285 eV
 629( 0) :     5.487638 a.u.   149.326 eV
 630( 0) :     5.487675 a.u.   149.327 eV
 631( 0) :     5.506820 a.u.   149.848 eV
 632( 0) :     5.520347 a.u.   150.216 eV
 633( 0) :     5.521034 a.u.   150.235 eV
 634( 0) :     5.546031 a.u.   150.915 eV
 635( 0) :     5.546166 a.u.   150.919 eV
 636( 0) :     5.557248 a.u.   151.220 eV
 637( 0) :     5.585776 a.u.   151.997 eV
 638( 0) :     5.587766 a.u.   152.051 eV
 639( 0) :     5.588620 a.u.   152.074 eV
 640( 0) :     5.647117 a.u.   153.666 eV
 641( 0) :     5.648714 a.u.   153.709 eV
 642( 0) :     5.669247 a.u.   154.268 eV
 643( 0) :     5.729373 a.u.   155.904 eV
 644( 0) :     5.730430 a.u.   155.933 eV
 645( 0) :     5.746014 a.u.   156.357 eV
 646( 0) :     5.753013 a.u.   156.547 eV
 647( 0) :     5.758596 a.u.   156.699 eV
 648( 0) :     5.759290 a.u.   156.718 eV
 649( 0) :     5.839129 a.u.   158.891 eV
 650( 0) :     5.839678 a.u.   158.906 eV
 651( 0) :     5.894806 a.u.   160.406 eV
 652( 0) :     5.990272 a.u.   163.004 eV
 653( 0) :     5.990359 a.u.   163.006 eV
 654( 0) :     6.074574 a.u.   165.298 eV
 655( 0) :     6.075632 a.u.   165.326 eV
 656( 0) :     6.085770 a.u.   165.602 eV
 657( 0) :     6.096822 a.u.   165.903 eV
 658( 0) :     6.106650 a.u.   166.170 eV
 659( 0) :     6.107399 a.u.   166.191 eV
 660( 0) :     6.114616 a.u.   166.387 eV
 661( 0) :     6.115950 a.u.   166.423 eV
 662( 0) :     6.122102 a.u.   166.591 eV
 663( 0) :     7.460298 a.u.   203.005 eV
 664( 0) :    29.649775 a.u.   806.811 eV
 665( 0) :    29.717538 a.u.   808.655 eV
 666( 0) :    29.717771 a.u.   808.662 eV
 667( 0) :    29.782709 a.u.   810.429 eV
 668( 0) :    29.793070 a.u.   810.711 eV
 669( 0) :    29.793378 a.u.   810.719 eV
 670( 0) :    29.832227 a.u.   811.776 eV
 671( 0) :    30.009757 a.u.   816.607 eV
 672( 0) :    30.010386 a.u.   816.624 eV
 673( 0) :    30.019025 a.u.   816.859 eV
 674( 0) :    30.035403 a.u.   817.305 eV
 675( 0) :    30.041157 a.u.   817.461 eV
 676( 0) :    30.041296 a.u.   817.465 eV
 677( 0) :    30.108408 a.u.   819.291 eV
 678( 0) :    30.108643 a.u.   819.298 eV
 679( 0) :    30.148906 a.u.   820.393 eV
 680( 0) :    30.240125 a.u.   822.876 eV
 681( 0) :    30.240253 a.u.   822.879 eV
 682( 0) :    30.295734 a.u.   824.389 eV
 683( 0) :    30.295902 a.u.   824.393 eV
 684( 0) :    30.319102 a.u.   825.025 eV
 685( 0) :    30.321297 a.u.   825.084 eV
 686( 0) :    30.329078 a.u.   825.296 eV
 687( 0) :    30.329490 a.u.   825.307 eV
 688( 0) :    30.333769 a.u.   825.424 eV
 689( 0) :    30.338542 a.u.   825.554 eV
 690( 0) :    30.338991 a.u.   825.566 eV
 691( 0) :    36.673821 a.u.   997.945 eV
 692( 0) :    36.681879 a.u.   998.165 eV
 693( 0) :    36.682092 a.u.   998.170 eV
 694( 0) :    36.764009 a.u.  1000.400 eV
 695( 0) :    36.766038 a.u.  1000.455 eV
 696( 0) :    36.774554 a.u.  1000.686 eV
 697( 0) :    36.863062 a.u.  1003.095 eV
 698( 0) :    36.878823 a.u.  1003.524 eV
 699( 0) :    36.878950 a.u.  1003.527 eV
 700( 0) :    36.893346 a.u.  1003.919 eV
 701( 0) :    36.893351 a.u.  1003.919 eV
 702( 0) :    36.893410 a.u.  1003.921 eV
 703( 0) :    36.894497 a.u.  1003.950 eV
 704( 0) :    36.905569 a.u.  1004.252 eV
 705( 0) :    36.905797 a.u.  1004.258 eV
 706( 0) :    36.908983 a.u.  1004.344 eV
 707( 0) :    36.909202 a.u.  1004.350 eV
 708( 0) :    36.939093 a.u.  1005.164 eV
 709( 0) :    36.962191 a.u.  1005.792 eV
 710( 0) :    36.962218 a.u.  1005.793 eV
 711( 0) :    36.978812 a.u.  1006.245 eV
 712( 0) :    36.987439 a.u.  1006.479 eV
 713( 0) :    37.012356 a.u.  1007.157 eV
 714( 0) :    37.012871 a.u.  1007.171 eV
 715( 0) :    37.015752 a.u.  1007.250 eV
 716( 0) :    37.026672 a.u.  1007.547 eV
 717( 0) :    37.032231 a.u.  1007.698 eV
 718( 0) :    37.105300 a.u.  1009.687 eV
 719( 0) :    37.105789 a.u.  1009.700 eV
 720( 0) :    37.111679 a.u.  1009.860 eV
 721( 0) :    37.245858 a.u.  1013.511 eV
 722( 0) :    37.253870 a.u.  1013.729 eV
 723( 0) :    37.269560 a.u.  1014.156 eV
 724( 0) :    37.358842 a.u.  1016.586 eV
 725( 0) :    37.371287 a.u.  1016.924 eV
 726( 0) :    37.371884 a.u.  1016.941 eV
 727( 0) :    41.163149 a.u.  1120.106 eV
-------
TIMINGS
-------

Total SCF time: 0 days 0 hours 1 min 8 sec 

Total time                  ....      68.894 sec
Sum of individual times     ....      65.579 sec  ( 95.2%)

Fock matrix formation       ....      42.720 sec  ( 62.0%)
  Split-RI-J                ....      24.906 sec  ( 58.3% of F)
  XC integration            ....      10.553 sec  ( 24.7% of F)
    Basis function eval.    ....       0.377 sec  (  3.6% of XC)
    Density eval.           ....       1.003 sec  (  9.5% of XC)
    XC-Functional eval.     ....       0.054 sec  (  0.5% of XC)
    XC-Potential eval.      ....       1.391 sec  ( 13.2% of XC)
Diagonalization             ....       8.164 sec  ( 11.8%)
Density matrix formation    ....       0.669 sec  (  1.0%)
Population analysis         ....       4.301 sec  (  6.2%)
Initial guess               ....       0.789 sec  (  1.1%)
Orbital Transformation      ....       0.000 sec  (  0.0%)
Orbital Orthonormalization  ....       0.000 sec  (  0.0%)
DIIS solution               ....       5.972 sec  (  8.7%)
Grid generation             ....       2.963 sec  (  4.3%)

-------------------------   --------------------
FINAL SINGLE POINT ENERGY     -1103.168222428901
-------------------------   --------------------

   --->>> SOC part of D-tensor requested, so NeedSOC=true

                            ***************************************
                            *     ORCA property calculations      *
                            ***************************************

                                    ---------------------
                                    Active property flags
                                    ---------------------
   (+) Dipole Moment
   (+) D-tensor
   (+) Spin-Orbit Integrals are needed


------------------------------------------------------------------------------
                       ORCA ELECTRIC PROPERTIES CALCULATION
------------------------------------------------------------------------------

Dipole Moment Calculation                       ... on
Quadrupole Moment Calculation                   ... off
Polarizability Calculation                      ... off
GBWName                                         ... zfs.gbw
Electron density file                           ... zfs.scfp
The origin for moment calculation is the CENTER OF MASS  = ( 0.000035,  0.000042 -3.167486)

-------------
DIPOLE MOMENT
-------------
                                X             Y             Z
Electronic contribution:      0.00322       0.00454       1.06743
Nuclear contribution   :     -0.00269      -0.00270      -0.32886
                        -----------------------------------------
Total Dipole Moment    :      0.00052       0.00184       0.73857
                        -----------------------------------------
Magnitude (a.u.)       :      0.73857
Magnitude (Debye)      :      1.87731



--------------------
Rotational spectrum 
--------------------
 
Rotational constants in cm-1:     0.009246     0.009141     0.009141 
Rotational constants in MHz :   277.183097   274.048600   274.045280 

 Dipole components along the rotational axes: 
x,y,z [a.u.] :     0.738570     0.002316     0.000807 
x,y,z [Debye]:     1.877296     0.005886     0.002051 

 


           ************************************************************
           *        Program running with 72 parallel MPI-processes    *
           *              working on a shared directory               *
           ************************************************************
------------------------------------------------------------------------------
                         ORCA SPIN-ORBIT COUPLING CALCULATION
------------------------------------------------------------------------------

GBW file                                    ... zfs.gbw
Input density                               ... zfs.scfp
Output integrals                            ... zfs
Operator type                               ... Mean-field/Effective potential
   One-Electron Terms                       ... 1
   Coulomb Contribution                     ... 2
   Exchange Contribution                    ... 3
   Correlation Contribution                 ... 0
   Maximum number of centers                ... 4
Setting up the integration grid             ... done
Evaluating density on the grid              ... (NumEl=  206.004449) done
Evaluating Coulomb term semi-analytically   ... done
One-Center Exchange (+SOO)                  ... done
Evaluating the spin-orbit operator          ... done
Total time for SOC: 65.011


           ************************************************************
           *        Program running with 72 parallel MPI-processes    *
           *              working on a shared directory               *
           ************************************************************
------------------------------------------------------------------------------
                                ORCA EPR/NMR CALCULATION
------------------------------------------------------------------------------

GBWName                      ... zfs.gbw
Electron density file        ... zfs.scfp
Spin density file            ... zfs.scfr
Spin-orbit integrals         ... zfs
Multiplicity                 ... 3
g-tensor                     ... 0
NMR chemical shifts          ... 0
D-tensor                     ... spin-spin and spin-orbit
D(SS)-algorithm              ... spin-density from UNOs
D(SOC)-algorithm             ... CP (=Coupled-perturbed)
Active orbitals for UNO spin density= 102 .. 103

Starting the spin-spin zero-field-splitting computation (UNO)...
                        ... done with spin-spin calculation

Starting the spin-orbit zero-field-splitting computation (CP)...
Transforming integrals                       ... Max(Pert)=   5.6104e-06
Warning: Perturbation too small - adjusting
Transforming integrals                       ... Max(Pert)=   6.1097e-05
Warning: Perturbation too small - adjusting
Transforming integrals                       ... Max(Pert)=   6.6535e-04
Warning: Perturbation too small - adjusting
Transforming integrals                       ... Max(Pert)=   7.2457e-03
done
    ... no HF exchange - skipping linear equations
ZFS-Tensor - using the prefactors
   -1/(4S**2) for same spin
    1/(2*S*(2*S-1)) for alpha->beta
    1/((S+1)*(2*S+1)) for beta->alpha
                        ... done with spin-orbit calculation

---------------------------
ZERO-FIELD-SPLITTING TENSOR
---------------------------

raw-matrix : 
   0.019972     0.000304    -0.000015  
   0.000304     0.019937    -0.000019  
  -0.000015    -0.000019     0.087103  

Tensor is right-handed
diagonalized D matrix : 
   0.019650     0.020259     0.087103  

   0.686127     0.727482    -0.000222  
  -0.727482     0.686127    -0.000279  
  -0.000051     0.000353     1.000000  


Direction X=1 Y=0 Z=2
D   =     0.067149  cm**-1
E/D =     0.004532

SPIN-SPIN-PART
                   0          1          2    
      0      -0.021863   0.000299  -0.000002
      1       0.000299  -0.021896  -0.000002
      2      -0.000002  -0.000002   0.043759
Exchange and Coulomb parts of SS (raw)
Coulomb
                   0          1          2    
      0      -0.014001  -0.004173  -0.000045
      1      -0.004173  -0.018123  -0.000020
      2      -0.000045  -0.000020   0.032124
Exchange
                   0          1          2    
      0      -0.007862   0.004472   0.000043
      1       0.004472  -0.003773   0.000019
      2       0.000043   0.000019   0.011635
One-, two-, three- and four-center SS contributions (raw)
One-Center            (AA|AA):
                   0          1          2    
      0      -0.001494  -0.000231  -0.000057
      1      -0.000231  -0.001560  -0.000028
      2      -0.000057  -0.000028   0.003053
Two-Center-Coulomb    (AA|BB):
                   0          1          2    
      0      -0.365194  -0.049857  -0.000414
      1      -0.049857  -0.338829   0.000125
      2      -0.000414   0.000125   0.704024
Two-Center-Exchange   (AB|BA):
                   0          1          2    
      0      -0.014645   0.000883   0.000241
      1       0.000883  -0.015025   0.000452
      2       0.000241   0.000452   0.029670
Two-Center-hybrid     (AA|AB):
                   0          1          2    
      0       0.001618   0.000950   0.000437
      1       0.000950   0.001355   0.000147
      2       0.000437   0.000147  -0.002973
Three-Center-Coulomb  (AA|BC):
                   0          1          2    
      0       0.628348   0.087374   0.004229
      1       0.087374   0.580145   0.004102
      2       0.004229   0.004102  -1.208492
Three-Center-Exchange (AB|AC):
                   0          1          2    
      0      -0.004270   0.000697  -0.001774
      1       0.000697  -0.003391  -0.001938
      2      -0.001774  -0.001938   0.007661
Four-Center           (AB|CD):
                   0          1          2    
      0      -0.266226  -0.039516  -0.002663
      1      -0.039516  -0.244591  -0.002862
      2      -0.002663  -0.002862   0.510817
ALPHA-PART
                   0          1          2    
      0      -0.113507   0.000008   0.000003
      1       0.000008  -0.113506   0.000006
      2       0.000003   0.000006  -0.108821
BETA-PART
                   0          1          2    
      0      -0.111412   0.000018  -0.000001
      1       0.000018  -0.111415   0.000005
      2      -0.000001   0.000005  -0.104853
ALPHA->BETA-PART
                   0          1          2    
      0       0.230143  -0.000015  -0.000016
      1      -0.000015   0.230141  -0.000028
      2      -0.000016  -0.000028   0.222808
BETA->ALPHA-PART
                   0          1          2    
      0       0.036611  -0.000006   0.000001
      1      -0.000006   0.036613   0.000000
      2       0.000001   0.000000   0.034210

Individual contributions (in cm**-1)
                                   D         E
SPIN-SPIN                  :   0.06564    0.00030
  Exchange vs Coulomb
  Coulomb                  :   0.04819   -0.00405
  Exchange                 :   0.01745    0.00434
  One through four center contributions:
  1-center                 :   0.00458   -0.00023
  2-center-Coulomb         :   1.05604   -0.05054
  2-center-Exchange        :   0.04450    0.00089
  2-center-Hybrid          :  -0.00446    0.00096
  3-center-Coulomb         :  -1.81274    0.08864
  3-center-Exchange        :   0.01149    0.00067
  4-center                 :   0.76623   -0.04008
SPIN-ORBIT                 :   0.00151    0.00000
SOMO->VMO  (alpha->alpha)  :   0.00469    0.00001
DOMO->SOMO (beta ->beta )  :   0.00656    0.00002
SOMO->SOMO (alpha->beta )  :  -0.00733   -0.00002
DOMO->VMO  (beta ->alpha)  :  -0.00240   -0.00001


Timings for individual modules:

Sum of individual times         ...      255.199 sec (=   4.253 min)
GTO integral calculation        ...       10.558 sec (=   0.176 min)   4.1 %
Spin-Orbit-Coupling Matrices    ...       65.002 sec (=   1.083 min)  25.5 %
SCF iterations                  ...       74.719 sec (=   1.245 min)  29.3 %
EPR/NMR calculation             ...      104.921 sec (=   1.749 min)  41.1 %
                             ****ORCA TERMINATED NORMALLY****
TOTAL RUN TIME: 0 days 0 hours 4 minutes 30 seconds 400 msec
