
                                 *****************
                                 * O   R   C   A *
                                 *****************

           --- An Ab Initio, DFT and Semiempirical electronic structure package ---

                  #######################################################
                  #                        -***-                        #
                  #          Department of theory and spectroscopy      #
                  #               Directorship: Frank Neese             #
                  #        Max Planck Institute fuer Kohlenforschung    #
                  #                Kaiser Wilhelm Platz 1               #
                  #                 D-45470 Muelheim/Ruhr               #
                  #                      Germany                        #
                  #                                                     #
                  #                  All rights reserved                #
                  #                        -***-                        #
                  #######################################################


                         Program Version 4.2.1 -  RELEASE  -


 With contributions from (in alphabetic order):
   Daniel Aravena         : Magnetic Suceptibility
   Michael Atanasov       : Ab Initio Ligand Field Theory (pilot matlab implementation)
   Alexander A. Auer      : GIAO ZORA, VPT2
   Ute Becker             : Parallelization
   Giovanni Bistoni       : ED, misc. LED, open-shell LED, HFLD
   Martin Brehm           : Molecular dynamics
   Dmytro Bykov           : SCF Hessian
   Vijay G. Chilkuri      : MRCI spin determinant printing, contributions to CSF-ICE
   Dipayan Datta          : RHF DLPNO-CCSD density
   Achintya Kumar Dutta   : EOM-CC, STEOM-CC
   Dmitry Ganyushin       : Spin-Orbit,Spin-Spin,Magnetic field MRCI
   Miquel Garcia          : C-PCM Hessian, Gaussian charge scheme
   Yang Guo               : DLPNO-NEVPT2, CIM, IAO-localization
   Andreas Hansen         : Spin unrestricted coupled pair/coupled cluster methods
   Benjamin Helmich-Paris : CASSCF linear response (MC-RPA)
   Lee Huntington         : MR-EOM, pCC
   Robert Izsak           : Overlap fitted RIJCOSX, COSX-SCS-MP3, EOM
   Christian Kollmar      : KDIIS, OOCD, Brueckner-CCSD(T), CCSD density
   Simone Kossmann        : Meta GGA functionals, TD-DFT gradient, OOMP2, MP2 Hessian
   Martin Krupicka        : AUTO-CI
   Lucas Lang             : DCDCAS
   Dagmar Lenk            : GEPOL surface, SMD
   Dimitrios Liakos       : Extrapolation schemes; Compound Job, initial MDCI parallelization
   Dimitrios Manganas     : Further ROCIS development; embedding schemes
   Dimitrios Pantazis     : SARC Basis sets
   Taras Petrenko         : DFT Hessian,TD-DFT gradient, ASA, ECA, R-Raman, ABS, FL, XAS/XES, NRVS
   Peter Pinski           : DLPNO-MP2, DLPNO-MP2 Gradient
   Christoph Reimann      : Effective Core Potentials
   Marius Retegan         : Local ZFS, SOC
   Christoph Riplinger    : Optimizer, TS searches, QM/MM, DLPNO-CCSD(T), (RO)-DLPNO pert. Triples
   Tobias Risthaus        : Range-separated hybrids, TD-DFT gradient, RPA, STAB
   Michael Roemelt        : Original ROCIS implementation
   Masaaki Saitow         : Open-shell DLPNO-CCSD energy and density
   Barbara Sandhoefer     : DKH picture change effects
   Avijit Sen             : IP-ROCIS
   Kantharuban Sivalingam : CASSCF convergence, NEVPT2, FIC-MRCI
   Bernardo de Souza      : ESD, SOC TD-DFT
   Georgi Stoychev        : AutoAux, RI-MP2 NMR
   Willem Van den Heuvel  : Paramagnetic NMR
   Boris Wezisla          : Elementary symmetry handling
   Frank Wennmohs         : Technical directorship


 We gratefully acknowledge several colleagues who have allowed us to
 interface, adapt or use parts of their codes:
   Stefan Grimme, W. Hujo, H. Kruse,             : VdW corrections, initial TS optimization,
                  C. Bannwarth                     DFT functionals, gCP, sTDA/sTD-DF
   Ed Valeev, F. Pavosevic, A. Kumar             : LibInt (2-el integral package), F12 methods
   Garnet Chan, S. Sharma, J. Yang, R. Olivares  : DMRG
   Ulf Ekstrom                                   : XCFun DFT Library
   Mihaly Kallay                                 : mrcc  (arbitrary order and MRCC methods)
   Andreas Klamt, Michael Diedenhofen            : otool_cosmo (COSMO solvation model)
   Jiri Pittner, Ondrej Demel                    : Mk-CCSD
   Frank Weinhold                                : gennbo (NPA and NBO analysis)
   Christopher J. Cramer and Donald G. Truhlar   : smd solvation model
   Lars Goerigk                                  : TD-DFT with DH, B97 family of functionals
   V. Asgeirsson, H. Jonsson                     : NEB implementation
   FAccTs GmbH                                   : IRC, NEB, NEB-TS, Multilevel, MM, QM/MM, CI optimization
   S Lehtola, MJT Oliveira, MAL Marques          : LibXC Library


 Your calculation uses the libint2 library for the computation of 2-el integrals
 For citations please refer to: http://libint.valeyev.net

 Your ORCA version has been built with support for libXC version: 4.2.3
 For citations please refer to: https://tddft.org/programs/libxc/

 This ORCA versions uses:
   CBLAS   interface :  Fast vector & matrix operations
   LAPACKE interface :  Fast linear algebra routines
   SCALAPACK package :  Parallel linear algebra routines




***************************************
The coordinates will be read from file: nv_cluster.xyz
***************************************


----- Orbital basis set information -----
Your calculation utilizes the basis: def2-TZVP
   F. Weigend and R. Ahlrichs, Phys. Chem. Chem. Phys. 7, 3297 (2005).

----- AuxJ basis set information -----
Your calculation utilizes the auxiliary basis: def2/J
   F. Weigend, Phys. Chem. Chem. Phys. 8, 1057 (2006).

================================================================================
                                        WARNINGS
                       Please study these warnings very carefully!
================================================================================


WARNING: your system is open-shell and RHF/RKS was chosen
  ===> : WILL SWITCH to UHF/UKS


WARNING: Geometry Optimization
  ===> : Switching off AutoStart
         For restart on a previous wavefunction, please use MOREAD

INFO   : the flag for use of LIBINT has been found!

================================================================================
                                       INPUT FILE
================================================================================
NAME = nv.in
|  1> 
|  2> # specify functional, basis set, and geometry optimzation
|  3> ! PBE def2-TZVP Opt
|  4> 
|  5> # specify geometry, charge, and multiplicity (2S+1)
|  6> *xyzfile -1 3 nv_cluster.xyz
|  7> 
|  8> # Parallelization
|  9> %PAL NPROCS 72 END
| 10> 
| 11>                          ****END OF INPUT****
================================================================================

                       *****************************
                       * Geometry Optimization Run *
                       *****************************

Geometry optimization settings:
Update method            Update   .... BFGS
Choice of coordinates    CoordSys .... Z-matrix Internals
Initial Hessian          InHess   .... Almoef's Model

Convergence Tolerances:
Energy Change            TolE     ....  5.0000e-06 Eh
Max. Gradient            TolMAXG  ....  3.0000e-04 Eh/bohr
RMS Gradient             TolRMSG  ....  1.0000e-04 Eh/bohr
Max. Displacement        TolMAXD  ....  4.0000e-03 bohr
RMS Displacement         TolRMSD  ....  2.0000e-03 bohr
Strict Convergence                ....  False
------------------------------------------------------------------------------
                        ORCA OPTIMIZATION COORDINATE SETUP
------------------------------------------------------------------------------

The optimization will be done in new redundant internal coordinates
Making redundant internal coordinates   ...  (new redundants) done
Evaluating the initial hessian          ...  (Almloef) done
Evaluating the coordinates              ...  done
Calculating the B-matrix                .... done
Calculating the G-matrix                .... done
Diagonalizing the G-matrix              .... done
The first mode is                       ....  390
The number of degrees of freedom        ....  186

    -----------------------------------------------------------------
                    Redundant Internal Coordinates


    -----------------------------------------------------------------
         Definition                    Initial Value    Approx d2E/dq
    -----------------------------------------------------------------
      1. B(C  11,C   6)                  1.5559         0.339626   
      2. B(C  11,C   8)                  1.5559         0.339626   
      3. B(C  12,C   7)                  1.5559         0.339626   
      4. B(C  12,C  10)                  1.5559         0.339626   
      5. B(C  13,C   9)                  1.5559         0.339626   
      6. B(C  13,C   5)                  1.5559         0.339626   
      7. B(C  15,C   0)                  1.4899         0.432827   
      8. B(C  15,C   1)                  1.5475         0.350277   
      9. B(C  16,C   1)                  1.5475         0.350277   
     10. B(C  17,C   5)                  1.5487         0.348785   
     11. B(C  17,C   2)                  1.5436         0.355324   
     12. B(C  18,C   6)                  1.5487         0.348785   
     13. B(C  18,C   4)                  1.5436         0.355324   
     14. B(C  19,C   7)                  1.5487         0.348785   
     15. B(C  19,C   3)                  1.5436         0.355324   
     16. B(C  20,C   8)                  1.5487         0.348785   
     17. B(C  20,C   0)                  1.5014         0.414885   
     18. B(C  20,C   4)                  1.5436         0.355324   
     19. B(C  21,C   9)                  1.5487         0.348785   
     20. B(C  21,C   2)                  1.5436         0.355324   
     21. B(C  21,C   0)                  1.5014         0.414885   
     22. B(C  22,C  10)                  1.5487         0.348785   
     23. B(C  22,C   3)                  1.5436         0.355324   
     24. B(C  23,C  19)                  1.5014         0.414885   
     25. B(C  23,C  17)                  1.5014         0.414885   
     26. B(C  23,C  14)                  1.4899         0.432827   
     27. B(C  24,C  22)                  1.5014         0.414885   
     28. B(C  24,C  18)                  1.5014         0.414885   
     29. B(C  24,C  16)                  1.4899         0.432827   
     30. B(C  25,C  15)                  1.5475         0.350277   
     31. B(C  25,C  14)                  1.5475         0.350277   
     32. B(C  26,C  16)                  1.5475         0.350277   
     33. B(C  26,C  14)                  1.5475         0.350277   
     34. B(N  27,C  13)                  1.4759         0.408177   
     35. B(N  27,C  12)                  1.4759         0.408177   
     36. B(N  27,C  11)                  1.4759         0.408177   
     37. B(H  28,C   1)                  1.0700         0.387566   
     38. B(H  29,C   1)                  1.0700         0.387548   
     39. B(H  30,C   2)                  1.0700         0.387566   
     40. B(H  31,C   2)                  1.0700         0.387541   
     41. B(H  32,C   3)                  1.0700         0.387541   
     42. B(H  33,C   3)                  1.0700         0.387558   
     43. B(H  34,H  28)                  0.7835         0.212553   
     44. B(H  34,C   4)                  1.0700         0.387566   
     45. B(H  35,C   4)                  1.0700         0.387541   
     46. B(H  36,C   5)                  1.0700         0.387550   
     47. B(H  37,C   5)                  1.0700         0.387555   
     48. B(H  38,C   6)                  1.0700         0.387551   
     49. B(H  39,C   6)                  1.0700         0.387560   
     50. B(H  40,C   7)                  1.0700         0.387551   
     51. B(H  41,H  36)                  0.7446         0.245228   
     52. B(H  41,C   7)                  1.0700         0.387560   
     53. B(H  42,C   8)                  1.0700         0.387550   
     54. B(H  43,C   8)                  1.0700         0.387555   
     55. B(H  44,C   9)                  1.0700         0.387551   
     56. B(H  45,H  42)                  0.7446         0.245228   
     57. B(H  45,C   9)                  1.0700         0.387560   
     58. B(H  46,H  39)                  0.7446         0.245228   
     59. B(H  46,C  10)                  1.0700         0.387550   
     60. B(H  47,C  10)                  1.0700         0.387555   
     61. B(H  48,C  11)                  1.0700         0.387560   
     62. B(H  49,C  12)                  1.0700         0.387560   
     63. B(H  50,C  13)                  1.0700         0.387560   
     64. B(H  51,C  14)                  1.0700         0.387560   
     65. B(H  52,C  15)                  1.0700         0.387560   
     66. B(H  53,C  16)                  1.0700         0.387560   
     67. B(H  54,C  17)                  1.0700         0.387551   
     68. B(H  55,C  18)                  1.0700         0.387551   
     69. B(H  56,C  19)                  1.0700         0.387551   
     70. B(H  57,C  20)                  1.0700         0.387551   
     71. B(H  58,C  21)                  1.0700         0.387551   
     72. B(H  59,C  22)                  1.0700         0.387551   
     73. B(H  60,C  25)                  1.0700         0.387542   
     74. B(H  61,H  30)                  0.7834         0.212663   
     75. B(H  61,C  25)                  1.0700         0.387552   
     76. B(H  62,H  33)                  0.7877         0.209303   
     77. B(H  62,C  26)                  1.0700         0.387566   
     78. B(H  63,C  26)                  1.0700         0.387548   
     79. A(C  15,C   0,C  20)          113.1095         0.379461   
     80. A(C  15,C   0,C  21)          113.1095         0.379461   
     81. A(C  20,C   0,C  21)          111.9794         0.376691   
     82. A(C  16,C   1,H  28)          109.4670         0.324805   
     83. A(C  16,C   1,H  29)          109.4601         0.324802   
     84. A(C  15,C   1,H  29)          109.4601         0.324802   
     85. A(C  15,C   1,C  16)          109.4900         0.355470   
     86. A(H  28,C   1,H  29)          109.4830         0.297666   
     87. A(C  15,C   1,H  28)          109.4670         0.324805   
     88. A(C  17,C   2,H  31)          109.8014         0.325566   
     89. A(C  21,C   2,H  30)          109.6132         0.325569   
     90. A(H  30,C   2,H  31)          109.0952         0.297665   
     91. A(C  17,C   2,H  30)          109.6132         0.325569   
     92. A(C  21,C   2,H  31)          109.8014         0.325566   
     93. A(C  17,C   2,C  21)          108.9045         0.357201   
     94. A(C  19,C   3,C  22)          108.9045         0.357201   
     95. A(H  32,C   3,H  33)          109.0951         0.297664   
     96. A(C  19,C   3,H  33)          109.8022         0.325568   
     97. A(C  22,C   3,H  32)          109.6124         0.325566   
     98. A(C  19,C   3,H  32)          109.6124         0.325566   
     99. A(C  22,C   3,H  33)          109.8022         0.325568   
    100. A(C  20,C   4,H  35)          109.8014         0.325566   
    101. A(H  34,C   4,H  35)          109.0952         0.297665   
    102. A(C  18,C   4,H  35)          109.8014         0.325566   
    103. A(C  18,C   4,C  20)          108.9045         0.357201   
    104. A(C  18,C   4,H  34)          109.6132         0.325569   
    105. A(C  20,C   4,H  34)          109.6132         0.325569   
    106. A(H  36,C   5,H  37)          110.0228         0.297665   
    107. A(C  13,C   5,H  36)          109.2659         0.323160   
    108. A(C  13,C   5,H  37)          108.9924         0.323161   
    109. A(C  13,C   5,C  17)          110.2909         0.353358   
    110. A(C  17,C   5,H  36)          109.2661         0.324575   
    111. A(C  17,C   5,H  37)          108.9925         0.324575   
    112. A(C  18,C   6,H  39)          108.9928         0.324576   
    113. A(H  38,C   6,H  39)          110.0229         0.297666   
    114. A(C  11,C   6,C  18)          110.2909         0.353358   
    115. A(C  11,C   6,H  39)          108.9925         0.323161   
    116. A(C  18,C   6,H  38)          109.2656         0.324575   
    117. A(C  11,C   6,H  38)          109.2658         0.323160   
    118. A(C  12,C   7,H  41)          108.9925         0.323161   
    119. A(C  19,C   7,H  41)          108.9928         0.324576   
    120. A(C  19,C   7,H  40)          109.2656         0.324575   
    121. A(C  12,C   7,H  40)          109.2658         0.323160   
    122. A(C  12,C   7,C  19)          110.2909         0.353358   
    123. A(H  40,C   7,H  41)          110.0229         0.297666   
    124. A(C  20,C   8,H  43)          108.9925         0.324575   
    125. A(H  42,C   8,H  43)          110.0228         0.297665   
    126. A(C  11,C   8,H  43)          108.9924         0.323161   
    127. A(C  20,C   8,H  42)          109.2661         0.324575   
    128. A(C  11,C   8,H  42)          109.2659         0.323160   
    129. A(C  11,C   8,C  20)          110.2909         0.353358   
    130. A(C  21,C   9,H  45)          108.9928         0.324576   
    131. A(C  13,C   9,C  21)          110.2909         0.353358   
    132. A(C  21,C   9,H  44)          109.2656         0.324575   
    133. A(H  44,C   9,H  45)          110.0229         0.297666   
    134. A(C  13,C   9,H  45)          108.9925         0.323161   
    135. A(C  13,C   9,H  44)          109.2658         0.323160   
    136. A(C  22,C  10,H  46)          109.2661         0.324575   
    137. A(C  12,C  10,H  46)          109.2659         0.323160   
    138. A(C  12,C  10,C  22)          110.2909         0.353358   
    139. A(C  22,C  10,H  47)          108.9925         0.324575   
    140. A(H  46,C  10,H  47)          110.0228         0.297665   
    141. A(C  12,C  10,H  47)          108.9924         0.323161   
    142. A(C   8,C  11,H  48)          109.9897         0.323161   
    143. A(C   6,C  11,H  48)          109.9897         0.323161   
    144. A(C   8,C  11,N  27)          111.4405         0.360682   
    145. A(C   6,C  11,N  27)          111.4405         0.360682   
    146. A(C   6,C  11,C   8)          107.7743         0.351771   
    147. A(N  27,C  11,H  48)          106.2168         0.331103   
    148. A(N  27,C  12,H  49)          106.2168         0.331103   
    149. A(C  10,C  12,H  49)          109.9897         0.323161   
    150. A(C   7,C  12,H  49)          109.9897         0.323161   
    151. A(C  10,C  12,N  27)          111.4405         0.360682   
    152. A(C   7,C  12,N  27)          111.4405         0.360682   
    153. A(C   7,C  12,C  10)          107.7743         0.351771   
    154. A(C   9,C  13,H  50)          109.9897         0.323161   
    155. A(C   5,C  13,H  50)          109.9897         0.323161   
    156. A(C   9,C  13,N  27)          111.4405         0.360682   
    157. A(C   5,C  13,N  27)          111.4405         0.360682   
    158. A(C   5,C  13,C   9)          107.7743         0.351771   
    159. A(N  27,C  13,H  50)          106.2168         0.331103   
    160. A(C  25,C  14,C  26)          109.0901         0.355470   
    161. A(C  23,C  14,C  26)          111.1802         0.368543   
    162. A(C  23,C  14,C  25)          111.1802         0.368543   
    163. A(C  25,C  14,H  51)          109.1709         0.324804   
    164. A(C  26,C  14,H  51)          109.1709         0.324804   
    165. A(C  23,C  14,H  51)          106.9938         0.336373   
    166. A(C   1,C  15,C  25)          109.0901         0.355470   
    167. A(C   0,C  15,C  25)          111.1802         0.368543   
    168. A(C   0,C  15,C   1)          111.1802         0.368543   
    169. A(C  25,C  15,H  52)          109.1709         0.324804   
    170. A(C   1,C  15,H  52)          109.1709         0.324804   
    171. A(C   0,C  15,H  52)          106.9938         0.336373   
    172. A(C  24,C  16,C  26)          111.1802         0.368543   
    173. A(C   1,C  16,C  26)          109.0901         0.355470   
    174. A(C   1,C  16,C  24)          111.1802         0.368543   
    175. A(C  26,C  16,H  53)          109.1709         0.324804   
    176. A(C  24,C  16,H  53)          106.9938         0.336373   
    177. A(C   1,C  16,H  53)          109.1709         0.324804   
    178. A(C   5,C  17,C  23)          111.7531         0.365610   
    179. A(C   2,C  17,C  23)          111.4547         0.366775   
    180. A(C   2,C  17,C   5)          109.1633         0.356076   
    181. A(C  23,C  17,H  54)          106.4104         0.334012   
    182. A(C   5,C  17,H  54)          108.8276         0.324575   
    183. A(C   2,C  17,H  54)          109.1409         0.325567   
    184. A(C   6,C  18,H  55)          108.8276         0.324575   
    185. A(C   4,C  18,C   6)          109.1633         0.356076   
    186. A(C   6,C  18,C  24)          111.7531         0.365610   
    187. A(C   4,C  18,C  24)          111.4547         0.366775   
    188. A(C  24,C  18,H  55)          106.4104         0.334012   
    189. A(C   4,C  18,H  55)          109.1409         0.325567   
    190. A(C   3,C  19,C  23)          111.4547         0.366775   
    191. A(C   3,C  19,C   7)          109.1633         0.356076   
    192. A(C  23,C  19,H  56)          106.4104         0.334012   
    193. A(C   7,C  19,H  56)          108.8276         0.324575   
    194. A(C   3,C  19,H  56)          109.1409         0.325567   
    195. A(C   7,C  19,C  23)          111.7531         0.365610   
    196. A(C   0,C  20,C   4)          111.4547         0.366775   
    197. A(C   8,C  20,H  57)          108.8276         0.324575   
    198. A(C   4,C  20,H  57)          109.1409         0.325567   
    199. A(C   0,C  20,H  57)          106.4104         0.334012   
    200. A(C   4,C  20,C   8)          109.1633         0.356076   
    201. A(C   0,C  20,C   8)          111.7531         0.365610   
    202. A(C   2,C  21,C   9)          109.1633         0.356076   
    203. A(C   0,C  21,C   9)          111.7531         0.365610   
    204. A(C   0,C  21,C   2)          111.4547         0.366775   
    205. A(C   9,C  21,H  58)          108.8276         0.324575   
    206. A(C   2,C  21,H  58)          109.1409         0.325567   
    207. A(C   0,C  21,H  58)          106.4104         0.334012   
    208. A(C   3,C  22,C  10)          109.1633         0.356076   
    209. A(C  10,C  22,H  59)          108.8276         0.324575   
    210. A(C   3,C  22,C  24)          111.4547         0.366775   
    211. A(C  10,C  22,C  24)          111.7531         0.365610   
    212. A(C  24,C  22,H  59)          106.4104         0.334012   
    213. A(C   3,C  22,H  59)          109.1409         0.325567   
    214. A(C  14,C  23,C  17)          113.1095         0.379461   
    215. A(C  17,C  23,C  19)          111.9794         0.376691   
    216. A(C  14,C  23,C  19)          113.1095         0.379461   
    217. A(C  18,C  24,C  22)          111.9794         0.376691   
    218. A(C  16,C  24,C  22)          113.1095         0.379461   
    219. A(C  16,C  24,C  18)          113.1095         0.379461   
    220. A(C  14,C  25,C  15)          109.4900         0.355470   
    221. A(C  15,C  25,H  61)          109.4609         0.324803   
    222. A(C  14,C  25,H  61)          109.4609         0.324803   
    223. A(C  15,C  25,H  60)          109.4662         0.324801   
    224. A(C  14,C  25,H  60)          109.4662         0.324801   
    225. A(H  60,C  25,H  61)          109.4830         0.297664   
    226. A(C  14,C  26,C  16)          109.4900         0.355470   
    227. A(H  62,C  26,H  63)          109.4830         0.297666   
    228. A(C  16,C  26,H  63)          109.4601         0.324802   
    229. A(C  14,C  26,H  63)          109.4601         0.324802   
    230. A(C  16,C  26,H  62)          109.4670         0.324805   
    231. A(C  14,C  26,H  62)          109.4670         0.324805   
    232. A(C  12,N  27,C  13)          113.0933         0.369896   
    233. A(C  11,N  27,C  13)          113.0933         0.369896   
    234. A(C  11,N  27,C  12)          113.0933         0.369896   
    235. A(C   1,H  28,H  34)          144.5376         0.234642   
    236. A(C   2,H  30,H  61)          143.6083         0.234659   
    237. A(C   3,H  33,H  62)          142.8358         0.234134   
    238. A(C   4,H  34,H  28)          143.6215         0.234642   
    239. A(C   5,H  36,H  41)          143.6747         0.239431   
    240. A(C   6,H  39,H  46)          145.5190         0.239432   
    241. A(C   7,H  41,H  36)          145.5190         0.239432   
    242. A(C   8,H  42,H  45)          143.6747         0.239431   
    243. A(C   9,H  45,H  42)          145.5190         0.239432   
    244. A(C  10,H  46,H  39)          143.6747         0.239431   
    245. A(C  25,H  61,H  30)          144.5630         0.234658   
    246. A(C  26,H  62,H  33)          144.9476         0.234135   
    247. D(N  27,C  11,C   6,C  18)    -63.0971         0.009341   
    248. D(N  27,C  11,C   6,H  38)    176.7786         0.009341   
    249. D(H  48,C  11,C   8,H  42)     60.4965         0.009341   
    250. D(N  27,C  11,C   6,H  39)     56.5208         0.009341   
    251. D(C   8,C  11,C   6,H  38)    -60.6542         0.009341   
    252. D(H  48,C  11,C   8,C  20)   -179.3785         0.009341   
    253. D(H  48,C  11,C   6,C  18)    179.3785         0.009341   
    254. D(N  27,C  11,C   8,C  20)     63.0971         0.009341   
    255. D(N  27,C  11,C   8,H  42)    -57.0279         0.009341   
    256. D(C   6,C  11,C   8,C  20)    -59.4701         0.009341   
    257. D(C   6,C  11,C   8,H  42)   -179.5951         0.009341   
    258. D(C   8,C  11,C   6,C  18)     59.4701         0.009341   
    259. D(C   6,C  11,C   8,H  43)     60.1473         0.009341   
    260. D(N  27,C  11,C   8,H  43)   -177.2855         0.009341   
    261. D(H  48,C  11,C   8,H  43)    -59.7611         0.009341   
    262. D(C   8,C  11,C   6,H  39)    179.0880         0.009341   
    263. D(H  48,C  11,C   6,H  39)    -61.0035         0.009341   
    264. D(H  48,C  11,C   6,H  38)     59.2542         0.009341   
    265. D(H  49,C  12,C   7,H  41)    -61.0035         0.009341   
    266. D(C   7,C  12,C  10,H  47)     60.1473         0.009341   
    267. D(N  27,C  12,C   7,H  40)    176.7786         0.009341   
    268. D(C   7,C  12,C  10,C  22)    -59.4701         0.009341   
    269. D(N  27,C  12,C   7,C  19)    -63.0971         0.009341   
    270. D(H  49,C  12,C   7,C  19)    179.3785         0.009341   
    271. D(C  10,C  12,C   7,H  41)    179.0880         0.009341   
    272. D(N  27,C  12,C  10,H  46)    -57.0279         0.009341   
    273. D(C   7,C  12,C  10,H  46)   -179.5951         0.009341   
    274. D(N  27,C  12,C  10,C  22)     63.0971         0.009341   
    275. D(N  27,C  12,C   7,H  41)     56.5208         0.009341   
    276. D(H  49,C  12,C  10,H  47)    -59.7611         0.009341   
    277. D(H  49,C  12,C  10,H  46)     60.4965         0.009341   
    278. D(C  10,C  12,C   7,C  19)     59.4701         0.009341   
    279. D(C  10,C  12,C   7,H  40)    -60.6542         0.009341   
    280. D(H  49,C  12,C  10,C  22)   -179.3785         0.009341   
    281. D(N  27,C  12,C  10,H  47)   -177.2855         0.009341   
    282. D(H  49,C  12,C   7,H  40)     59.2542         0.009341   
    283. D(H  50,C  13,C   9,C  21)    179.3785         0.009341   
    284. D(H  50,C  13,C   9,H  45)    -61.0035         0.009341   
    285. D(H  50,C  13,C   9,H  44)     59.2542         0.009341   
    286. D(N  27,C  13,C   9,H  44)    176.7786         0.009341   
    287. D(N  27,C  13,C   9,C  21)    -63.0971         0.009341   
    288. D(C   5,C  13,C   9,H  45)    179.0880         0.009341   
    289. D(N  27,C  13,C   5,H  37)   -177.2855         0.009341   
    290. D(H  50,C  13,C   5,H  36)     60.4965         0.009341   
    291. D(C   5,C  13,C   9,C  21)     59.4701         0.009341   
    292. D(N  27,C  13,C   5,C  17)     63.0971         0.009341   
    293. D(N  27,C  13,C   5,H  36)    -57.0279         0.009341   
    294. D(H  50,C  13,C   5,C  17)   -179.3785         0.009341   
    295. D(C   5,C  13,C   9,H  44)    -60.6542         0.009341   
    296. D(C   9,C  13,C   5,H  36)   -179.5951         0.009341   
    297. D(C   9,C  13,C   5,H  37)     60.1473         0.009341   
    298. D(N  27,C  13,C   9,H  45)     56.5208         0.009341   
    299. D(C   9,C  13,C   5,C  17)    -59.4701         0.009341   
    300. D(H  50,C  13,C   5,H  37)    -59.7611         0.009341   
    301. D(H  52,C  15,C   0,C  21)    -64.3238         0.013832   
    302. D(C   0,C  15,C   1,H  28)     57.4802         0.009884   
    303. D(H  52,C  15,C   0,C  20)     64.3238         0.013832   
    304. D(C  25,C  15,C   0,C  21)     54.7984         0.013832   
    305. D(C   1,C  15,C   0,C  20)    -54.7984         0.013832   
    306. D(C   0,C  15,C   1,C  16)    -62.5237         0.009884   
    307. D(C   1,C  15,C   0,C  21)    176.5540         0.013832   
    308. D(C  25,C  15,C   0,C  20)   -176.5540         0.013832   
    309. D(C   0,C  15,C   1,H  29)    177.4853         0.009884   
    310. D(H  52,C  15,C   1,H  29)     59.6742         0.009884   
    311. D(H  52,C  15,C   1,H  28)    -60.3309         0.009884   
    312. D(H  52,C  15,C   1,C  16)    179.6653         0.009884   
    313. D(C  25,C  15,C   1,H  28)   -179.5548         0.009884   
    314. D(C  25,C  15,C   1,H  29)    -59.5497         0.009884   
    315. D(C  25,C  15,C   1,C  16)     60.4413         0.009884   
    316. D(C  24,C  16,C   1,H  28)    -57.4802         0.009884   
    317. D(H  53,C  16,C   1,C  15)   -179.6653         0.009884   
    318. D(C  24,C  16,C   1,H  29)   -177.4853         0.009884   
    319. D(C  26,C  16,C   1,C  15)    -60.4413         0.009884   
    320. D(C  24,C  16,C   1,C  15)     62.5237         0.009884   
    321. D(C  26,C  16,C   1,H  28)    179.5548         0.009884   
    322. D(H  53,C  16,C   1,H  29)    -59.6742         0.009884   
    323. D(H  53,C  16,C   1,H  28)     60.3309         0.009884   
    324. D(C  26,C  16,C   1,H  29)     59.5497         0.009884   
    325. D(H  54,C  17,C   5,H  37)     60.4757         0.009807   
    326. D(H  54,C  17,C   5,C  13)   -179.9069         0.009807   
    327. D(C  23,C  17,C   5,H  37)    177.6967         0.009807   
    328. D(C  23,C  17,C   5,H  36)     57.4390         0.009807   
    329. D(C   2,C  17,C   5,H  37)    -58.5527         0.009807   
    330. D(C  23,C  17,C   2,C  21)     62.9485         0.010148   
    331. D(C   2,C  17,C   5,C  13)     61.0647         0.009807   
    332. D(H  54,C  17,C   2,H  30)     60.2744         0.010148   
    333. D(C  23,C  17,C   2,H  31)   -176.7943         0.010148   
    334. D(H  54,C  17,C   2,C  21)   -179.8118         0.010148   
    335. D(C  23,C  17,C   2,H  30)    -56.9653         0.010148   
    336. D(C  23,C  17,C   5,C  13)    -62.6859         0.009807   
    337. D(C   2,C  17,C   5,H  36)   -178.8104         0.009807   
    338. D(H  54,C  17,C   2,H  31)    -59.5546         0.010148   
    339. D(C   5,C  17,C   2,H  30)    179.1079         0.010148   
    340. D(H  54,C  17,C   5,H  36)    -59.7821         0.009807   
    341. D(C   5,C  17,C   2,H  31)     59.2788         0.010148   
    342. D(C   5,C  17,C   2,C  21)    -60.9783         0.010148   
    343. D(H  55,C  18,C   6,H  38)    -59.9687         0.009807   
    344. D(H  55,C  18,C   6,H  39)     60.2891         0.009807   
    345. D(H  55,C  18,C   6,C  11)    179.9069         0.009807   
    346. D(C  24,C  18,C   6,H  38)   -177.1898         0.009807   
    347. D(C  24,C  18,C   6,C  11)     62.6859         0.009807   
    348. D(C   4,C  18,C   6,H  39)    179.3175         0.009807   
    349. D(C   4,C  18,C   6,H  38)     59.0597         0.009807   
    350. D(H  55,C  18,C   4,H  34)    -60.2744         0.010148   
    351. D(H  55,C  18,C   4,C  20)    179.8118         0.010148   
    352. D(C  24,C  18,C   4,H  35)    176.7943         0.010148   
    353. D(C   4,C  18,C   6,C  11)    -61.0647         0.009807   
    354. D(C  24,C  18,C   4,H  34)     56.9653         0.010148   
    355. D(C  24,C  18,C   4,C  20)    -62.9485         0.010148   
    356. D(C  24,C  18,C   6,H  39)    -56.9319         0.009807   
    357. D(H  55,C  18,C   4,H  35)     59.5546         0.010148   
    358. D(C   6,C  18,C   4,C  20)     60.9783         0.010148   
    359. D(C   6,C  18,C   4,H  34)   -179.1079         0.010148   
    360. D(C   6,C  18,C   4,H  35)    -59.2788         0.010148   
    361. D(C   3,C  19,C   7,H  41)    179.3175         0.009807   
    362. D(C   3,C  19,C   7,C  12)    -61.0647         0.009807   
    363. D(H  56,C  19,C   3,H  33)    -59.9296         0.010148   
    364. D(H  56,C  19,C   3,H  32)     59.8994         0.010148   
    365. D(H  56,C  19,C   3,C  22)    179.8118         0.010148   
    366. D(C  23,C  19,C   3,H  33)     57.3101         0.010148   
    367. D(C  23,C  19,C   3,H  32)    177.1392         0.010148   
    368. D(C  23,C  19,C   3,C  22)    -62.9485         0.010148   
    369. D(C   7,C  19,C   3,H  32)    -58.9340         0.010148   
    370. D(C   3,C  19,C   7,H  40)     59.0597         0.009807   
    371. D(C   7,C  19,C   3,H  33)   -178.7630         0.010148   
    372. D(C  23,C  19,C   7,C  12)     62.6859         0.009807   
    373. D(C   7,C  19,C   3,C  22)     60.9783         0.010148   
    374. D(H  56,C  19,C   7,H  41)     60.2891         0.009807   
    375. D(H  56,C  19,C   7,H  40)    -59.9687         0.009807   
    376. D(H  56,C  19,C   7,C  12)    179.9069         0.009807   
    377. D(C  23,C  19,C   7,H  41)    -56.9319         0.009807   
    378. D(C  23,C  19,C   7,H  40)   -177.1898         0.009807   
    379. D(H  57,C  20,C   8,H  43)     60.4757         0.009807   
    380. D(H  57,C  20,C   8,C  11)   -179.9069         0.009807   
    381. D(C   4,C  20,C   8,H  43)    -58.5527         0.009807   
    382. D(C   4,C  20,C   8,H  42)   -178.8104         0.009807   
    383. D(C   0,C  20,C   8,H  43)    177.6967         0.009807   
    384. D(C   0,C  20,C   8,H  42)     57.4390         0.009807   
    385. D(C   0,C  20,C   8,C  11)    -62.6859         0.009807   
    386. D(H  57,C  20,C   4,H  35)    -59.5546         0.010148   
    387. D(H  57,C  20,C   4,H  34)     60.2744         0.010148   
    388. D(H  57,C  20,C   4,C  18)   -179.8118         0.010148   
    389. D(C   8,C  20,C   4,H  35)     59.2788         0.010148   
    390. D(C   0,C  20,C   4,C  18)     62.9485         0.010148   
    391. D(C   0,C  20,C   4,H  35)   -176.7943         0.010148   
    392. D(C   0,C  20,C   4,H  34)    -56.9653         0.010148   
    393. D(C   8,C  20,C   4,H  34)    179.1079         0.010148   
    394. D(H  57,C  20,C   0,C  21)     64.9383         0.012738   
    395. D(H  57,C  20,C   0,C  15)    -64.2899         0.012738   
    396. D(C   4,C  20,C   8,C  11)     61.0647         0.009807   
    397. D(C   8,C  20,C   0,C  21)    -53.7300         0.012738   
    398. D(C   8,C  20,C   4,C  18)    -60.9783         0.010148   
    399. D(C   4,C  20,C   0,C  15)     54.5922         0.012738   
    400. D(H  57,C  20,C   8,H  42)    -59.7821         0.009807   
    401. D(C   8,C  20,C   0,C  15)    177.0418         0.012738   
    402. D(C   4,C  20,C   0,C  21)   -176.1796         0.012738   
    403. D(H  58,C  21,C   9,H  45)     60.2891         0.009807   
    404. D(H  58,C  21,C   9,H  44)    -59.9687         0.009807   
    405. D(H  58,C  21,C   9,C  13)    179.9069         0.009807   
    406. D(C   2,C  21,C   9,H  45)    179.3175         0.009807   
    407. D(C   2,C  21,C   9,H  44)     59.0597         0.009807   
    408. D(C   0,C  21,C   9,H  45)    -56.9319         0.009807   
    409. D(C   0,C  21,C   9,H  44)   -177.1898         0.009807   
    410. D(C   0,C  21,C   9,C  13)     62.6859         0.009807   
    411. D(H  58,C  21,C   2,H  31)     59.5546         0.010148   
    412. D(H  58,C  21,C   2,H  30)    -60.2744         0.010148   
    413. D(H  58,C  21,C   2,C  17)    179.8118         0.010148   
    414. D(C   9,C  21,C   2,H  31)    -59.2788         0.010148   
    415. D(C   9,C  21,C   2,H  30)   -179.1079         0.010148   
    416. D(C   9,C  21,C   2,C  17)     60.9783         0.010148   
    417. D(C   0,C  21,C   2,H  31)    176.7943         0.010148   
    418. D(C   0,C  21,C   2,H  30)     56.9653         0.010148   
    419. D(C   0,C  21,C   2,C  17)    -62.9485         0.010148   
    420. D(C   2,C  21,C   9,C  13)    -61.0647         0.009807   
    421. D(H  58,C  21,C   0,C  20)    -64.9383         0.012738   
    422. D(H  58,C  21,C   0,C  15)     64.2899         0.012738   
    423. D(C   9,C  21,C   0,C  20)     53.7300         0.012738   
    424. D(C   9,C  21,C   0,C  15)   -177.0418         0.012738   
    425. D(C   2,C  21,C   0,C  20)    176.1796         0.012738   
    426. D(C   2,C  21,C   0,C  15)    -54.5922         0.012738   
    427. D(H  59,C  22,C  10,H  47)     60.4757         0.009807   
    428. D(H  59,C  22,C  10,H  46)    -59.7821         0.009807   
    429. D(H  59,C  22,C  10,C  12)   -179.9069         0.009807   
    430. D(C  24,C  22,C  10,H  47)    177.6967         0.009807   
    431. D(C  24,C  22,C  10,H  46)     57.4390         0.009807   
    432. D(C  24,C  22,C  10,C  12)    -62.6859         0.009807   
    433. D(C   3,C  22,C  10,H  47)    -58.5527         0.009807   
    434. D(C   3,C  22,C  10,H  46)   -178.8104         0.009807   
    435. D(C   3,C  22,C  10,C  12)     61.0647         0.009807   
    436. D(H  59,C  22,C   3,H  33)     59.9296         0.010148   
    437. D(H  59,C  22,C   3,H  32)    -59.8994         0.010148   
    438. D(H  59,C  22,C   3,C  19)   -179.8118         0.010148   
    439. D(C  24,C  22,C   3,H  33)    -57.3101         0.010148   
    440. D(C  24,C  22,C   3,H  32)   -177.1392         0.010148   
    441. D(C  24,C  22,C   3,C  19)     62.9485         0.010148   
    442. D(C  10,C  22,C   3,H  33)    178.7630         0.010148   
    443. D(C  10,C  22,C   3,H  32)     58.9340         0.010148   
    444. D(C  10,C  22,C   3,C  19)    -60.9783         0.010148   
    445. D(C  17,C  23,C  19,H  56)    -64.9383         0.012738   
    446. D(C  17,C  23,C  19,C   3)    176.1796         0.012738   
    447. D(C  14,C  23,C  19,H  56)     64.2899         0.012738   
    448. D(C  14,C  23,C  19,C   7)   -177.0418         0.012738   
    449. D(C  14,C  23,C  19,C   3)    -54.5922         0.012738   
    450. D(C  19,C  23,C  17,H  54)     64.9383         0.012738   
    451. D(C  19,C  23,C  17,C   5)    -53.7300         0.012738   
    452. D(C  19,C  23,C  17,C   2)   -176.1796         0.012738   
    453. D(C  14,C  23,C  17,H  54)    -64.2899         0.012738   
    454. D(C  14,C  23,C  17,C   5)    177.0418         0.012738   
    455. D(C  14,C  23,C  17,C   2)     54.5922         0.012738   
    456. D(C  19,C  23,C  14,H  51)    -64.3238         0.013832   
    457. D(C  19,C  23,C  14,C  26)     54.7984         0.013832   
    458. D(C  19,C  23,C  14,C  25)    176.5540         0.013832   
    459. D(C  17,C  23,C  14,H  51)     64.3238         0.013832   
    460. D(C  17,C  23,C  19,C   7)     53.7300         0.012738   
    461. D(C  17,C  23,C  14,C  26)   -176.5540         0.013832   
    462. D(C  17,C  23,C  14,C  25)    -54.7984         0.013832   
    463. D(C  18,C  24,C  22,H  59)     64.9383         0.012738   
    464. D(C  18,C  24,C  22,C  10)    -53.7300         0.012738   
    465. D(C  18,C  24,C  22,C   3)   -176.1796         0.012738   
    466. D(C  16,C  24,C  22,C  10)    177.0418         0.012738   
    467. D(C  16,C  24,C  22,C   3)     54.5922         0.012738   
    468. D(C  22,C  24,C  18,H  55)    -64.9383         0.012738   
    469. D(C  22,C  24,C  18,C   6)     53.7300         0.012738   
    470. D(C  22,C  24,C  18,C   4)    176.1796         0.012738   
    471. D(C  16,C  24,C  18,H  55)     64.2899         0.012738   
    472. D(C  16,C  24,C  18,C   6)   -177.0418         0.012738   
    473. D(C  16,C  24,C  18,C   4)    -54.5922         0.012738   
    474. D(C  22,C  24,C  16,H  53)     64.3238         0.013832   
    475. D(C  22,C  24,C  16,C  26)    -54.7984         0.013832   
    476. D(C  16,C  24,C  22,H  59)    -64.2899         0.012738   
    477. D(C  22,C  24,C  16,C   1)   -176.5540         0.013832   
    478. D(C  18,C  24,C  16,H  53)    -64.3238         0.013832   
    479. D(C  18,C  24,C  16,C  26)    176.5540         0.013832   
    480. D(C  18,C  24,C  16,C   1)     54.7984         0.013832   
    481. D(H  61,C  25,C  15,H  52)     60.3421         0.009884   
    482. D(H  61,C  25,C  15,C   0)    -57.4689         0.009884   
    483. D(H  60,C  25,C  15,H  52)    -59.6630         0.009884   
    484. D(H  60,C  25,C  15,C   1)     59.5610         0.009884   
    485. D(C  14,C  25,C  15,H  52)   -179.6653         0.009884   
    486. D(C  14,C  25,C  15,C   1)    -60.4413         0.009884   
    487. D(C  14,C  25,C  15,C   0)     62.5237         0.009884   
    488. D(H  61,C  25,C  14,H  51)    -60.3421         0.009884   
    489. D(H  61,C  25,C  14,C  26)   -179.5660         0.009884   
    490. D(H  61,C  25,C  14,C  23)     57.4689         0.009884   
    491. D(H  60,C  25,C  14,H  51)     59.6630         0.009884   
    492. D(H  60,C  25,C  15,C   0)   -177.4740         0.009884   
    493. D(H  60,C  25,C  14,C  26)    -59.5610         0.009884   
    494. D(H  60,C  25,C  14,C  23)    177.4740         0.009884   
    495. D(C  15,C  25,C  14,H  51)    179.6653         0.009884   
    496. D(H  61,C  25,C  15,C   1)    179.5660         0.009884   
    497. D(C  15,C  25,C  14,C  26)     60.4413         0.009884   
    498. D(C  15,C  25,C  14,C  23)    -62.5237         0.009884   
    499. D(C  16,C  26,C  14,H  51)   -179.6653         0.009884   
    500. D(C  16,C  26,C  14,C  25)    -60.4413         0.009884   
    501. D(C  16,C  26,C  14,C  23)     62.5237         0.009884   
    502. D(H  63,C  26,C  16,H  53)     59.6742         0.009884   
    503. D(H  63,C  26,C  16,C  24)    177.4853         0.009884   
    504. D(H  63,C  26,C  16,C   1)    -59.5497         0.009884   
    505. D(H  62,C  26,C  16,C  24)     57.4802         0.009884   
    506. D(H  62,C  26,C  16,C   1)   -179.5548         0.009884   
    507. D(C  14,C  26,C  16,H  53)    179.6653         0.009884   
    508. D(C  14,C  26,C  16,C  24)    -62.5237         0.009884   
    509. D(C  14,C  26,C  16,C   1)     60.4413         0.009884   
    510. D(H  63,C  26,C  14,H  51)    -59.6742         0.009884   
    511. D(H  63,C  26,C  14,C  25)     59.5497         0.009884   
    512. D(H  62,C  26,C  16,H  53)    -60.3309         0.009884   
    513. D(H  63,C  26,C  14,C  23)   -177.4853         0.009884   
    514. D(H  62,C  26,C  14,H  51)     60.3309         0.009884   
    515. D(H  62,C  26,C  14,C  25)    179.5548         0.009884   
    516. D(H  62,C  26,C  14,C  23)    -57.4802         0.009884   
    517. D(C  12,N  27,C  13,H  50)    -65.0963         0.014215   
    518. D(C  12,N  27,C  13,C   5)     54.6859         0.014215   
    519. D(C  11,N  27,C  13,H  50)     65.0963         0.014215   
    520. D(C  11,N  27,C  13,C   9)    -54.6859         0.014215   
    521. D(C  13,N  27,C  12,H  49)     65.0963         0.014215   
    522. D(C  13,N  27,C  12,C  10)   -175.1215         0.014215   
    523. D(C  13,N  27,C  12,C   7)    -54.6859         0.014215   
    524. D(C  11,N  27,C  12,H  49)    -65.0963         0.014215   
    525. D(C  11,N  27,C  12,C  10)     54.6859         0.014215   
    526. D(C  11,N  27,C  12,C   7)    175.1215         0.014215   
    527. D(C  13,N  27,C  11,H  48)    -65.0963         0.014215   
    528. D(C  11,N  27,C  13,C   5)   -175.1215         0.014215   
    529. D(C  13,N  27,C  11,C   8)     54.6859         0.014215   
    530. D(C  13,N  27,C  11,C   6)    175.1215         0.014215   
    531. D(C  12,N  27,C  11,H  48)     65.0963         0.014215   
    532. D(C  12,N  27,C  13,C   9)    175.1215         0.014215   
    533. D(C  12,N  27,C  11,C   8)   -175.1215         0.014215   
    534. D(C  12,N  27,C  11,C   6)    -54.6859         0.014215   
    535. D(H  34,H  28,C   1,H  29)    180.0000         0.145399   
    536. D(H  34,H  28,C   1,C  16)     60.0090         0.145399   
    537. D(H  34,H  28,C   1,C  15)    -60.0090         0.145399   
    538. D(H  61,H  30,C   2,H  31)    180.0000         0.145398   
    539. D(H  61,H  30,C   2,C  21)    -59.7398         0.145398   
    540. D(H  61,H  30,C   2,C  17)     59.7398         0.145398   
    541. D(H  62,H  33,C   3,H  32)    180.0000         0.145391   
    542. D(H  62,H  33,C   3,C  22)     59.8561         0.145391   
    543. D(H  62,H  33,C   3,C  19)    -59.8561         0.145391   
    544. D(C   4,H  34,H  28,C   1)      0.0000         1.386859   
    545. D(H  28,H  34,C   4,H  35)    180.0000         0.145398   
    546. D(H  28,H  34,C   4,C  20)     59.7398         0.145398   
    547. D(H  28,H  34,C   4,C  18)    -59.7398         0.145398   
    548. D(H  41,H  36,C   5,H  37)    179.5032         0.145383   
    549. D(H  41,H  36,C   5,C  17)    -60.8727         0.145383   
    550. D(H  41,H  36,C   5,C  13)     59.8794         0.145383   
    551. D(H  46,H  39,C   6,H  38)   -179.4720         0.145393   
    552. D(H  46,H  39,C   6,C  18)     60.7379         0.145393   
    553. D(H  46,H  39,C   6,C  11)    -59.6819         0.145393   
    554. D(C   7,H  41,H  36,C   5)     -0.0284         2.096231   
    555. D(H  36,H  41,C   7,H  40)   -179.4720         0.145393   
    556. D(H  36,H  41,C   7,C  19)     60.7379         0.145393   
    557. D(H  36,H  41,C   7,C  12)    -59.6819         0.145393   
    558. D(H  45,H  42,C   8,H  43)    179.5032         0.145383   
    559. D(H  45,H  42,C   8,C  20)    -60.8727         0.145383   
    560. D(H  45,H  42,C   8,C  11)     59.8794         0.145383   
    561. D(C   9,H  45,H  42,C   8)     -0.0284         2.096231   
    562. D(H  42,H  45,C   9,H  44)   -179.4720         0.145393   
    563. D(H  42,H  45,C   9,C  21)     60.7379         0.145393   
    564. D(H  42,H  45,C   9,C  13)    -59.6819         0.145393   
    565. D(C  10,H  46,H  39,C   6)     -0.0284         2.096231   
    566. D(H  39,H  46,C  10,H  47)    179.5032         0.145383   
    567. D(H  39,H  46,C  10,C  22)    -60.8727         0.145383   
    568. D(H  39,H  46,C  10,C  12)     59.8794         0.145383   
    569. D(C  25,H  61,H  30,C   2)      0.0000         1.388907   
    570. D(H  30,H  61,C  25,H  60)    180.0000         0.145385   
    571. D(H  30,H  61,C  25,C  15)     60.0052         0.145385   
    572. D(H  30,H  61,C  25,C  14)    -60.0052         0.145385   
    573. D(C  26,H  62,H  33,C   3)      0.0000         1.327286   
    574. D(H  33,H  62,C  26,H  63)    180.0000         0.145399   
    575. D(H  33,H  62,C  26,C  16)    -60.0090         0.145399   
    576. D(H  33,H  62,C  26,C  14)     60.0090         0.145399   
    -----------------------------------------------------------------

Number of atoms                         .... 64
Number of degrees of freedom            .... 576

         *************************************************************
         *                GEOMETRY OPTIMIZATION CYCLE   1            *
         *************************************************************
---------------------------------
CARTESIAN COORDINATES (ANGSTROEM)
---------------------------------
  C      8.091600    6.206040    8.091600
  C      8.028270    8.028270    9.810990
  C      9.804780    6.248830    6.248830
  C      6.248830    9.804780    6.248830
  C      6.248830    6.248830    9.804780
  C      8.013620    6.253760    4.476130
  C      4.476130    6.253760    8.013620
  C      6.253760    8.013620    4.476130
  C      6.253760    4.476130    8.013620
  C      8.013620    4.476130    6.253760
  C      4.476130    8.013620    6.253760
  C      5.355250    5.355250    7.096690
  C      5.355250    7.096690    5.355250
  C      7.096690    5.355250    5.355250
  C      8.917750    8.917750    7.130610
  C      8.917750    7.130610    8.917750
  C      7.130610    8.917750    8.917750
  C      8.907460    7.147320    5.371140
  C      5.371140    7.147320    8.907460
  C      7.147320    8.907460    5.371140
  C      7.147320    5.371140    8.907460
  C      8.907460    5.371140    7.147320
  C      5.371140    8.907460    7.147320
  C      8.091600    8.091600    6.206040
  C      6.206040    8.091600    8.091600
  C      9.810990    8.028270    8.028270
  C      8.028270    9.810990    8.028270
  N      6.164130    6.164130    6.164130
  H      7.413360    7.413360   10.434410
  H      8.648950    8.648950   10.422890
  H     10.436790    6.859340    6.859340
  H     10.413920    5.626790    5.626790
  H      5.623980   10.408140    5.623980
  H      6.856400   10.442440    6.856400
  H      6.859340    6.859340   10.436790
  H      5.626790    5.626790   10.413920
  H      7.405680    6.875000    3.852130
  H      8.638760    5.628850    3.873150
  H      3.864670    5.633050    8.634700
  H      3.860530    6.879190    7.401440
  H      5.633050    8.634700    3.864670
  H      6.879190    7.401440    3.860530
  H      6.875000    3.852130    7.405680
  H      5.628850    3.873150    8.638760
  H      8.634700    3.864670    5.633050
  H      7.401440    3.860530    6.879190
  H      3.852130    7.405680    6.875000
  H      3.873150    8.638760    5.628850
  H      4.732430    4.732430    6.489170
  H      4.732430    6.489170    4.732430
  H      6.489170    4.732430    4.732430
  H      9.540160    9.540160    6.522250
  H      9.540160    6.522250    9.540160
  H      6.522250    9.540160    9.540160
  H      9.525800    7.755210    4.744220
  H      4.744220    7.755210    9.525800
  H      7.755210    9.525800    4.744220
  H      7.755210    4.744220    9.525800
  H      9.525800    4.744220    7.755210
  H      4.744220    9.525800    7.755210
  H     10.423080    8.648860    8.648860
  H     10.434230    7.413260    7.413260
  H      7.413360   10.434410    7.413360
  H      8.648950   10.422890    8.648950

----------------------------
CARTESIAN COORDINATES (A.U.)
----------------------------
  NO LB      ZA    FRAG     MASS         X           Y           Z
   0 C     6.0000    0    12.011   15.290908   11.727716   15.290908
   1 C     6.0000    0    12.011   15.171232   15.171232   18.540084
   2 C     6.0000    0    12.011   18.528349   11.808577   11.808577
   3 C     6.0000    0    12.011   11.808577   18.528349   11.808577
   4 C     6.0000    0    12.011   11.808577   11.808577   18.528349
   5 C     6.0000    0    12.011   15.143547   11.817894    8.458660
   6 C     6.0000    0    12.011    8.458660   11.817894   15.143547
   7 C     6.0000    0    12.011   11.817894   15.143547    8.458660
   8 C     6.0000    0    12.011   11.817894    8.458660   15.143547
   9 C     6.0000    0    12.011   15.143547    8.458660   11.817894
  10 C     6.0000    0    12.011    8.458660   15.143547   11.817894
  11 C     6.0000    0    12.011   10.119956   10.119956   13.410801
  12 C     6.0000    0    12.011   10.119956   13.410801   10.119956
  13 C     6.0000    0    12.011   13.410801   10.119956   10.119956
  14 C     6.0000    0    12.011   16.852105   16.852105   13.474900
  15 C     6.0000    0    12.011   16.852105   13.474900   16.852105
  16 C     6.0000    0    12.011   13.474900   16.852105   16.852105
  17 C     6.0000    0    12.011   16.832660   13.506477   10.149984
  18 C     6.0000    0    12.011   10.149984   13.506477   16.832660
  19 C     6.0000    0    12.011   13.506477   16.832660   10.149984
  20 C     6.0000    0    12.011   13.506477   10.149984   16.832660
  21 C     6.0000    0    12.011   16.832660   10.149984   13.506477
  22 C     6.0000    0    12.011   10.149984   16.832660   13.506477
  23 C     6.0000    0    12.011   15.290908   15.290908   11.727716
  24 C     6.0000    0    12.011   11.727716   15.290908   15.290908
  25 C     6.0000    0    12.011   18.540084   15.171232   15.171232
  26 C     6.0000    0    12.011   15.171232   18.540084   15.171232
  27 N     7.0000    0    14.007   11.648518   11.648518   11.648518
  28 H     1.0000    0     1.008   14.009220   14.009220   19.718177
  29 H     1.0000    0     1.008   16.344147   16.344147   19.696408
  30 H     1.0000    0     1.008   19.722675   12.962274   12.962274
  31 H     1.0000    0     1.008   19.679457   10.633092   10.633092
  32 H     1.0000    0     1.008   10.627782   19.668534   10.627782
  33 H     1.0000    0     1.008   12.956718   19.733352   12.956718
  34 H     1.0000    0     1.008   12.962274   12.962274   19.722675
  35 H     1.0000    0     1.008   10.633092   10.633092   19.679457
  36 H     1.0000    0     1.008   13.994707   12.991867    7.279471
  37 H     1.0000    0     1.008   16.324891   10.636985    7.319193
  38 H     1.0000    0     1.008    7.303168   10.644922   16.317218
  39 H     1.0000    0     1.008    7.295344   12.999785   13.986695
  40 H     1.0000    0     1.008   10.644922   16.317218    7.303168
  41 H     1.0000    0     1.008   12.999785   13.986695    7.295344
  42 H     1.0000    0     1.008   12.991867    7.279471   13.994707
  43 H     1.0000    0     1.008   10.636985    7.319193   16.324891
  44 H     1.0000    0     1.008   16.317218    7.303168   10.644922
  45 H     1.0000    0     1.008   13.986695    7.295344   12.999785
  46 H     1.0000    0     1.008    7.279471   13.994707   12.991867
  47 H     1.0000    0     1.008    7.319193   16.324891   10.636985
  48 H     1.0000    0     1.008    8.942997    8.942997   12.262754
  49 H     1.0000    0     1.008    8.942997   12.262754    8.942997
  50 H     1.0000    0     1.008   12.262754    8.942997    8.942997
  51 H     1.0000    0     1.008   18.028290   18.028290   12.325266
  52 H     1.0000    0     1.008   18.028290   12.325266   18.028290
  53 H     1.0000    0     1.008   12.325266   18.028290   18.028290
  54 H     1.0000    0     1.008   18.001153   14.655223    8.965277
  55 H     1.0000    0     1.008    8.965277   14.655223   18.001153
  56 H     1.0000    0     1.008   14.655223   18.001153    8.965277
  57 H     1.0000    0     1.008   14.655223    8.965277   18.001153
  58 H     1.0000    0     1.008   18.001153    8.965277   14.655223
  59 H     1.0000    0     1.008    8.965277   18.001153   14.655223
  60 H     1.0000    0     1.008   19.696767   16.343977   16.343977
  61 H     1.0000    0     1.008   19.717837   14.009031   14.009031
  62 H     1.0000    0     1.008   14.009220   19.718177   14.009220
  63 H     1.0000    0     1.008   16.344147   19.696408   16.344147

--------------------------------
INTERNAL COORDINATES (ANGSTROEM)
--------------------------------
 C      0   0   0     0.000000000000     0.00000000     0.00000000
 C      1   0   0     2.506159379190     0.00000000     0.00000000
 C      1   2   0     2.516469346008   120.47980163     0.00000000
 C      2   1   3     4.360203935517    75.28951276    76.22046809
 C      1   2   3     2.516469346008    60.13666109   185.28092605
 C      3   1   2     2.520068201557    91.79198254   238.71168205
 C      5   1   2     2.520068201557    91.79198254   123.94390755
 C      6   3   1     2.488817879878   120.26270367    55.80981499
 C      7   5   1     2.513948454881    60.08029854    53.58771898
 C      9   7   5     2.488817879878   120.00000000   250.17453640
 C      7   5   1     2.488817879878   120.26270367   304.19018501
 C      7   5   1     1.555934709234    91.16208969    34.31291560
 C      8   6   3     1.555934709234    89.52036489   268.93440633
 C      6   3   1     1.555934709234    91.16208969   325.68708440
 C      3   1   2     2.947455199948    65.88564782   327.58081757
 C      1   2   3     1.489925276616    35.15413206    36.91849483
 C      2   1   3     1.547528947581    92.09616738    86.26473595
 C      3   1   2     1.543634412223    91.74895805   274.21412918
 C      5   1   2     1.543634412223    91.74895805    88.44146042
 C      4   2   1     1.543634412223    89.43444612   329.10816183
 C      1   2   3     1.501449389090    90.89531622   168.18484645
 C      1   2   3     1.501449389090   148.15947890    30.90318513
 C      4   2   1     1.543634412223    61.29327482    81.12116562
 C     15   3   1     1.489925276616    58.60965677   280.74828730
 C     17   2   1     1.489925276616   111.18020203    33.04196419
 C     15   3   1     1.547528947581    58.62536457    70.95401177
 C     15   3   1     1.547528947581   150.36231022   358.24113344
 N     12   7   5     1.475886805416   111.44049815   266.47389401
 H      2   1   3     1.069991174076    89.79353307   195.73746053
 H      2   1   3     1.070004175132   143.07771550   319.13264563
 H      3   1   2     1.069991383283    89.65615315    23.82610373
 H      3   1   2     1.070008907813   143.45442016   146.59818792
 H      4   2   1     1.070008567536   160.93593747   146.72547784
 H      4   2   1     1.069996675415    63.07526487   216.46486797
 H     29   2   1     0.783506212611   144.53757974   327.85866188
 H      5   1   2     1.070008907813   143.45442016   216.05740169
 H      6   3   1     1.070002888407   144.60621113    92.43846601
 H      6   3   1     1.069998788831    88.85454943   216.71123382
 H      7   5   1     1.070002150512    89.32899054   143.56976877
 H      7   5   1     1.069995512748   144.34071963   268.39352698
 H      8   6   3     1.070002150512   145.14812122   144.50547090
 H     37   6   3     0.744581327794   143.67472723   297.93895215
 H      9   7   5     1.070002888407   145.37731396   214.72621590
 H      9   7   5     1.069998788831    89.16961751    89.15623899
 H     10   9   7     1.070002150512   145.14812122   215.23987415
 H     43   9   7     0.744581327794   143.67472723    59.45941249
 H     40   7   5     0.744581327794   145.51898321    61.41526941
 H     11   7   5     1.069998788831   145.69949232   215.48546727
 H     12   7   5     1.069995352887   109.98974505   148.94952807
 H     13   8   6     1.069995352887   109.98974505   269.20901610
 H     14   6   3     1.069995352887   109.98974505   211.05047193
 H     15   3   1     1.069995469990   100.46117684   177.12691771
 H     16   1   2     1.069995469990   106.99375317   119.12222917
 H     17   2   1     1.069995469990   109.17093523   150.85301270
 H     18   3   1     1.070001539298   109.14085342   150.53266699
 H     19   5   1     1.070001539298   109.14085342   209.46733301
 H     20   4   2     1.070001539298   109.14085342   239.07347811
 H     21   1   2     1.070001539298   106.41038929   267.64060383
 H     22   1   2     1.070001539298   106.41038929    68.05132377
 H     23   4   2     1.070001539298   109.14085342   101.69249187
 H     26  15   3     1.070008441228   109.46620566   150.41611367
 H     31   3   1     0.783365359459   143.60831212   328.00561943
 H     34   4   2     0.787701316553   142.83582035    18.92060647
 H     27  15   3     1.070004175132   109.46008504   119.16576000

---------------------------
INTERNAL COORDINATES (A.U.)
---------------------------
 C      0   0   0     0.000000000000     0.00000000     0.00000000
 C      1   0   0     4.735954874626     0.00000000     0.00000000
 C      1   2   0     4.755437888364   120.47980163     0.00000000
 C      2   1   3     8.239591326173    75.28951276    76.22046809
 C      1   2   3     4.755437888364    60.13666109   185.28092605
 C      3   1   2     4.762238739747    91.79198254   238.71168205
 C      5   1   2     4.762238739747    91.79198254   123.94390755
 C      6   3   1     4.703184190176   120.26270367    55.80981499
 C      7   5   1     4.750674094520    60.08029854    53.58771898
 C      9   7   5     4.703184190176   120.00000000   250.17453640
 C      7   5   1     4.703184190176   120.26270367   304.19018501
 C      7   5   1     2.940290482715    91.16208969    34.31291560
 C      8   6   3     2.940290482715    89.52036489   268.93440633
 C      6   3   1     2.940290482715    91.16208969   325.68708440
 C      3   1   2     5.569883119904    65.88564782   327.58081757
 C      1   2   3     2.815550732812    35.15413206    36.91849483
 C      2   1   3     2.924405895243    92.09616738    86.26473595
 C      3   1   2     2.917046289999    91.74895805   274.21412918
 C      5   1   2     2.917046289999    91.74895805    88.44146042
 C      4   2   1     2.917046289999    89.43444612   329.10816183
 C      1   2   3     2.837328149324    90.89531622   168.18484645
 C      1   2   3     2.837328149324   148.15947890    30.90318513
 C      4   2   1     2.917046289999    61.29327482    81.12116562
 C     15   3   1     2.815550732812    58.60965677   280.74828730
 C     17   2   1     2.815550732812   111.18020203    33.04196419
 C     15   3   1     2.924405895243    58.62536457    70.95401177
 C     15   3   1     2.924405895243   150.36231022   358.24113344
 N     12   7   5     2.789021866903   111.44049815   266.47389401
 H      2   1   3     2.021990284716    89.79353307   195.73746053
 H      2   1   3     2.022014853152   143.07771550   319.13264563
 H      3   1   2     2.021990680061    89.65615315    23.82610373
 H      3   1   2     2.022023796623   143.45442016   146.59818792
 H      4   2   1     2.022023153592   160.93593747   146.72547784
 H      4   2   1     2.022000680741    63.07526487   216.46486797
 H     29   2   1     1.480612166061   144.53757974   327.85866188
 H      5   1   2     2.022023796623   143.45442016   216.05740169
 H      6   3   1     2.022012421595   144.60621113    92.43846601
 H      6   3   1     2.022004674518    88.85454943   216.71123382
 H      7   5   1     2.022011027174    89.32899054   143.56976877
 H      7   5   1     2.021998483618   144.34071963   268.39352698
 H      8   6   3     2.022011027174   145.14812122   144.50547090
 H     37   6   3     1.407054793963   143.67472723   297.93895215
 H      9   7   5     2.022012421595   145.37731396   214.72621590
 H      9   7   5     2.022004674518    89.16961751    89.15623899
 H     10   9   7     2.022011027174   145.14812122   215.23987415
 H     43   9   7     1.407054793963   143.67472723    59.45941249
 H     40   7   5     1.407054793963   145.51898321    61.41526941
 H     11   7   5     2.022004674518   145.69949232   215.48546727
 H     12   7   5     2.021998181525   109.98974505   148.94952807
 H     13   8   6     2.021998181525   109.98974505   269.20901610
 H     14   6   3     2.021998181525   109.98974505   211.05047193
 H     15   3   1     2.021998402818   100.46117684   177.12691771
 H     16   1   2     2.021998402818   106.99375317   119.12222917
 H     17   2   1     2.021998402818   109.17093523   150.85301270
 H     18   3   1     2.022009872147   109.14085342   150.53266699
 H     19   5   1     2.022009872147   109.14085342   209.46733301
 H     20   4   2     2.022009872147   109.14085342   239.07347811
 H     21   1   2     2.022009872147   106.41038929   267.64060383
 H     22   1   2     2.022009872147   106.41038929    68.05132377
 H     23   4   2     2.022009872147   109.14085342   101.69249187
 H     26  15   3     2.022022914906   109.46620566   150.41611367
 H     31   3   1     1.480345992178   143.60831212   328.00561943
 H     34   4   2     1.488539763615   142.83582035    18.92060647
 H     27  15   3     2.022014853152   109.46008504   119.16576000

---------------------
BASIS SET INFORMATION
---------------------
There are 3 groups of distinct atoms

 Group   1 Type C   : 11s6p2d1f contracted to 5s3p2d1f pattern {62111/411/11/1}
 Group   2 Type N   : 11s6p2d1f contracted to 5s3p2d1f pattern {62111/411/11/1}
 Group   3 Type H   : 5s1p contracted to 3s1p pattern {311/1}

Atom   0C    basis set group =>   1
Atom   1C    basis set group =>   1
Atom   2C    basis set group =>   1
Atom   3C    basis set group =>   1
Atom   4C    basis set group =>   1
Atom   5C    basis set group =>   1
Atom   6C    basis set group =>   1
Atom   7C    basis set group =>   1
Atom   8C    basis set group =>   1
Atom   9C    basis set group =>   1
Atom  10C    basis set group =>   1
Atom  11C    basis set group =>   1
Atom  12C    basis set group =>   1
Atom  13C    basis set group =>   1
Atom  14C    basis set group =>   1
Atom  15C    basis set group =>   1
Atom  16C    basis set group =>   1
Atom  17C    basis set group =>   1
Atom  18C    basis set group =>   1
Atom  19C    basis set group =>   1
Atom  20C    basis set group =>   1
Atom  21C    basis set group =>   1
Atom  22C    basis set group =>   1
Atom  23C    basis set group =>   1
Atom  24C    basis set group =>   1
Atom  25C    basis set group =>   1
Atom  26C    basis set group =>   1
Atom  27N    basis set group =>   2
Atom  28H    basis set group =>   3
Atom  29H    basis set group =>   3
Atom  30H    basis set group =>   3
Atom  31H    basis set group =>   3
Atom  32H    basis set group =>   3
Atom  33H    basis set group =>   3
Atom  34H    basis set group =>   3
Atom  35H    basis set group =>   3
Atom  36H    basis set group =>   3
Atom  37H    basis set group =>   3
Atom  38H    basis set group =>   3
Atom  39H    basis set group =>   3
Atom  40H    basis set group =>   3
Atom  41H    basis set group =>   3
Atom  42H    basis set group =>   3
Atom  43H    basis set group =>   3
Atom  44H    basis set group =>   3
Atom  45H    basis set group =>   3
Atom  46H    basis set group =>   3
Atom  47H    basis set group =>   3
Atom  48H    basis set group =>   3
Atom  49H    basis set group =>   3
Atom  50H    basis set group =>   3
Atom  51H    basis set group =>   3
Atom  52H    basis set group =>   3
Atom  53H    basis set group =>   3
Atom  54H    basis set group =>   3
Atom  55H    basis set group =>   3
Atom  56H    basis set group =>   3
Atom  57H    basis set group =>   3
Atom  58H    basis set group =>   3
Atom  59H    basis set group =>   3
Atom  60H    basis set group =>   3
Atom  61H    basis set group =>   3
Atom  62H    basis set group =>   3
Atom  63H    basis set group =>   3
---------------------------------
AUXILIARY/J BASIS SET INFORMATION
---------------------------------
There are 3 groups of distinct atoms

 Group   1 Type C   : 12s5p4d2f1g contracted to 6s4p3d1f1g pattern {711111/2111/211/2/1}
 Group   2 Type N   : 12s5p4d2f1g contracted to 6s4p3d1f1g pattern {711111/2111/211/2/1}
 Group   3 Type H   : 5s2p1d contracted to 3s1p1d pattern {311/2/1}

Atom   0C    basis set group =>   1
Atom   1C    basis set group =>   1
Atom   2C    basis set group =>   1
Atom   3C    basis set group =>   1
Atom   4C    basis set group =>   1
Atom   5C    basis set group =>   1
Atom   6C    basis set group =>   1
Atom   7C    basis set group =>   1
Atom   8C    basis set group =>   1
Atom   9C    basis set group =>   1
Atom  10C    basis set group =>   1
Atom  11C    basis set group =>   1
Atom  12C    basis set group =>   1
Atom  13C    basis set group =>   1
Atom  14C    basis set group =>   1
Atom  15C    basis set group =>   1
Atom  16C    basis set group =>   1
Atom  17C    basis set group =>   1
Atom  18C    basis set group =>   1
Atom  19C    basis set group =>   1
Atom  20C    basis set group =>   1
Atom  21C    basis set group =>   1
Atom  22C    basis set group =>   1
Atom  23C    basis set group =>   1
Atom  24C    basis set group =>   1
Atom  25C    basis set group =>   1
Atom  26C    basis set group =>   1
Atom  27N    basis set group =>   2
Atom  28H    basis set group =>   3
Atom  29H    basis set group =>   3
Atom  30H    basis set group =>   3
Atom  31H    basis set group =>   3
Atom  32H    basis set group =>   3
Atom  33H    basis set group =>   3
Atom  34H    basis set group =>   3
Atom  35H    basis set group =>   3
Atom  36H    basis set group =>   3
Atom  37H    basis set group =>   3
Atom  38H    basis set group =>   3
Atom  39H    basis set group =>   3
Atom  40H    basis set group =>   3
Atom  41H    basis set group =>   3
Atom  42H    basis set group =>   3
Atom  43H    basis set group =>   3
Atom  44H    basis set group =>   3
Atom  45H    basis set group =>   3
Atom  46H    basis set group =>   3
Atom  47H    basis set group =>   3
Atom  48H    basis set group =>   3
Atom  49H    basis set group =>   3
Atom  50H    basis set group =>   3
Atom  51H    basis set group =>   3
Atom  52H    basis set group =>   3
Atom  53H    basis set group =>   3
Atom  54H    basis set group =>   3
Atom  55H    basis set group =>   3
Atom  56H    basis set group =>   3
Atom  57H    basis set group =>   3
Atom  58H    basis set group =>   3
Atom  59H    basis set group =>   3
Atom  60H    basis set group =>   3
Atom  61H    basis set group =>   3
Atom  62H    basis set group =>   3
Atom  63H    basis set group =>   3


           ************************************************************
           *        Program running with 72 parallel MPI-processes    *
           *              working on a shared directory               *
           ************************************************************
------------------------------------------------------------------------------
                           ORCA GTO INTEGRAL CALCULATION
                           -- RI-GTO INTEGRALS CHOSEN --
------------------------------------------------------------------------------

                         BASIS SET STATISTICS AND STARTUP INFO

Gaussian basis set:
 # of primitive gaussian shells          ...  776
 # of primitive gaussian functions       ... 1576
 # of contracted shells                  ...  452
 # of contracted basis functions         ... 1084
 Highest angular momentum                ...    3
 Maximum contraction depth               ...    6
Auxiliary gaussian basis set:
 # of primitive gaussian shells          ...  960
 # of primitive gaussian functions       ... 2536
 # of contracted shells                  ...  600
 # of contracted aux-basis functions     ... 1768
 Highest angular momentum                ...    4
 Maximum contraction depth               ...    7
Ratio of auxiliary to basis functions    ...  1.63
Integral package used                  ... LIBINT
 One Electron integrals                  ... done
 Ordering auxiliary basis shells         ... done
 Integral threshhold             Thresh  ...  2.500e-11
 Primitive cut-off               TCut    ...  2.500e-12
 Pre-screening matrix                    ... done
 Shell pair data                         ... 
 Ordering of the shell pairs             ... done (   0.020 sec) 85326 of 102378 pairs
 Determination of significant pairs      ... done (   0.000 sec)
 Creation of shell pair data             ... done (   0.014 sec)
 Storage of shell pair data              ... done (   0.410 sec)
 Shell pair data done in (   0.444 sec)
 Computing two index integrals           ... done
 Cholesky decomposition of the V-matrix  ... done


Timings:
 Total evaluation time                   ...   4.158 sec (  0.069 min)
 One electron matrix time                ...   1.645 sec (  0.027 min) = 39.6%
 Schwartz matrix evaluation time         ...   0.962 sec (  0.016 min) = 23.1%
 Two index repulsion integral time       ...   0.315 sec (  0.005 min) =  7.6%
 Cholesky decomposition of V             ...   0.644 sec (  0.011 min) = 15.5%
 Three index repulsion integral time     ...   0.000 sec (  0.000 min) =  0.0%



           ************************************************************
           *        Program running with 72 parallel MPI-processes    *
           *              working on a shared directory               *
           ************************************************************
-------------------------------------------------------------------------------
                                 ORCA SCF
-------------------------------------------------------------------------------

------------
SCF SETTINGS
------------
Hamiltonian:
 Density Functional     Method          .... DFT(GTOs)
 Exchange Functional    Exchange        .... PBE
   PBE kappa parameter   XKappa         ....  0.804000
   PBE mue parameter    XMuePBE         ....  0.219520
 Correlation Functional Correlation     .... PBE
   PBE beta parameter  CBetaPBE         ....  0.066725
 LDA part of GGA corr.  LDAOpt          .... PW91-LDA
 Gradients option       PostSCFGGA      .... off
   Density functional embedding theory  .... OFF
   NL short-range parameter             ....  6.400000
 RI-approximation to the Coulomb term is turned on
   Number of auxiliary basis functions  .... 1768


General Settings:
 Integral files         IntName         .... nv
 Hartree-Fock type      HFTyp           .... UHF
 Total Charge           Charge          ....   -1
 Multiplicity           Mult            ....    3
 Number of Electrons    NEL             ....  206
 Basis Dimension        Dim             .... 1084
 Nuclear Repulsion      ENuc            ....   3308.0182243876 Eh

Convergence Acceleration:
 DIIS                   CNVDIIS         .... on
   Start iteration      DIISMaxIt       ....    12
   Startup error        DIISStart       ....  0.200000
   # of expansion vecs  DIISMaxEq       ....     5
   Bias factor          DIISBfac        ....   1.050
   Max. coefficient     DIISMaxC        ....  10.000
 Newton-Raphson         CNVNR           .... off
 SOSCF                  CNVSOSCF        .... off
 Level Shifting         CNVShift        .... on
   Level shift para.    LevelShift      ....    0.2500
   Turn off err/grad.   ShiftErr        ....    0.0010
 Zerner damping         CNVZerner       .... off
 Static damping         CNVDamp         .... on
   Fraction old density DampFac         ....    0.7000
   Max. Damping (<1)    DampMax         ....    0.9800
   Min. Damping (>=0)   DampMin         ....    0.0000
   Turn off err/grad.   DampErr         ....    0.1000
 Fernandez-Rico         CNVRico         .... off

SCF Procedure:
 Maximum # iterations   MaxIter         ....   125
 SCF integral mode      SCFMode         .... Direct
   Integral package                     .... LIBINT
 Reset frequency        DirectResetFreq ....    20
 Integral Threshold     Thresh          ....  2.500e-11 Eh
 Primitive CutOff       TCut            ....  2.500e-12 Eh

Convergence Tolerance:
 Convergence Check Mode ConvCheckMode   .... Total+1el-Energy
 Convergence forced     ConvForced      .... 0
 Energy Change          TolE            ....  1.000e-08 Eh
 1-El. energy change                    ....  1.000e-05 Eh
 DIIS Error             TolErr          ....  5.000e-07


Diagonalization of the overlap matrix:
Smallest eigenvalue                        ... 6.642e-06
Time for diagonalization                   ...    0.436 sec
Threshold for overlap eigenvalues          ... 1.000e-08
Number of eigenvalues below threshold      ... 0
Time for construction of square roots      ...    0.552 sec
Total time needed                          ...    0.995 sec

-------------------
DFT GRID GENERATION
-------------------

General Integration Accuracy     IntAcc      ...  4.340
Radial Grid Type                 RadialGrid  ... Gauss-Chebyshev
Angular Grid (max. acc.)         AngularGrid ... Lebedev-110
Angular grid pruning method      GridPruning ... 3 (G Style)
Weight generation scheme         WeightScheme... Becke
Basis function cutoff            BFCut       ...    1.0000e-11
Integration weight cutoff        WCut        ...    1.0000e-14
Grids for H and He will be reduced by one unit

# of grid points (after initial pruning)     ...  74998 (   0.0 sec)
# of grid points (after weights+screening)   ...  61989 (   0.1 sec)
nearest neighbour list constructed           ...    0.0 sec
Grid point re-assignment to atoms done       ...    0.0 sec
Grid point division into batches done        ...    0.1 sec
Reduced shell lists constructed in    0.1 sec

Total number of grid points                  ...    61989
Total number of batches                      ...      994
Average number of points per batch           ...       62
Average number of grid points per atom       ...      969
Average number of shells per batch           ...   306.00 (67.70%)
Average number of basis functions per batch  ...   787.47 (72.64%)
Average number of large shells per batch     ...   229.13 (74.88%)
Average number of large basis fcns per batch ...   569.27 (72.29%)
Maximum spatial batch extension              ...   2.42,  2.38,  2.29 au
Average spatial batch extension              ...   0.03,  0.02,  0.03 au

Time for grid setup =    0.927 sec

------------------------------
INITIAL GUESS: MODEL POTENTIAL
------------------------------
Loading Hartree-Fock densities                     ... done
Calculating cut-offs                               ... done
Setting up the integral package                    ... done
Initializing the effective Hamiltonian             ... done
Starting the Coulomb interaction                   ... done (   0.2 sec)
Reading the grid                                   ... done
Mapping shells                                     ... done
Starting the XC term evaluation                    ... done (   0.3 sec)
  promolecular density results
     # of electrons  =    205.185179250
     EX              =   -156.165875414
     EC              =     -7.175376009
     EX+EC           =   -163.341251423
Transforming the Hamiltonian                       ... done (   0.3 sec)
Diagonalizing the Hamiltonian                      ... done (   0.2 sec)
Back transforming the eigenvectors                 ... done (   0.1 sec)
Now organizing SCF variables                       ... done
                      ------------------
                      INITIAL GUESS DONE (   2.5 sec)
                      ------------------
--------------
SCF ITERATIONS
--------------
ITER       Energy         Delta-E        Max-DP      RMS-DP      [F,P]     Damp
               ***  Starting incremental Fock matrix formation  ***
  0  -1102.5244906076   0.000000000000 0.75039275  0.00555979  0.1260084 0.7000
  1  -1102.9668603792  -0.442369771667 0.47719132  0.00372411  0.0512657 0.7000
                               ***Turning on DIIS***
  2  -1103.0686077871  -0.101747407860 0.16394527  0.00201070  0.0288582 0.0000
  3  -1103.3369565674  -0.268348780327 0.44681674  0.00324012  0.0277185 0.0000
  4  -1103.3681201801  -0.031163612701 0.14443134  0.00109682  0.0201104 0.0000
  5  -1103.3772820766  -0.009161896443 0.07521891  0.00055758  0.0058204 0.0000
  6  -1103.3783428252  -0.001060748597 0.04762554  0.00034476  0.0017423 0.0000
  7  -1103.3784905268  -0.000147701672 0.03003270  0.00022087  0.0013016 0.0000
  8  -1103.3785393184  -0.000048791557 0.06531113  0.00051145  0.0006486 0.0000
  9  -1103.3785669337  -0.000027615296 0.00390698  0.00003396  0.0005801 0.0000
 10  -1103.3785755185  -0.000008584831 0.00145564  0.00001235  0.0001186 0.0000
 11  -1103.3785759164  -0.000000397918 0.00057230  0.00000422  0.0000891 0.0000
 12  -1103.3785761436  -0.000000227104 0.00031016  0.00000280  0.0000196 0.0000
[...]
      dyz     :     0.001188
      dx2y2   :     0.000226
      dxy     :     0.023124
      f0      :     0.002083  f :     0.003905
      f+1     :     0.000543
      f-1     :     0.000521
      f+2     :     0.000038
      f-2     :     0.000460
      f+3     :     0.000129
      f-3     :     0.000131
 22 C s       :    -0.000205  s :    -0.000205
      pz      :    -0.003212  p :    -0.010046
      px      :    -0.003482
      py      :    -0.003352
      dz2     :     0.019944  d :     0.045436
      dxz     :     0.001188
      dyz     :     0.000945
      dx2y2   :     0.000226
      dxy     :     0.023134
      f0      :     0.002081  f :     0.003902
      f+1     :     0.000521
      f-1     :     0.000543
      f+2     :     0.000038
      f-2     :     0.000459
      f+3     :     0.000131
      f-3     :     0.000130
 23 C s       :     0.025912  s :     0.025912
      pz      :     0.140901  p :     0.406073
      px      :     0.132559
      py      :     0.132613
      dz2     :     0.000295  d :     0.002264
      dxz     :     0.000492
      dyz     :     0.000493
      dx2y2   :     0.001008
      dxy     :    -0.000023
      f0      :    -0.000039  f :    -0.000818
      f+1     :    -0.000121
      f-1     :    -0.000121
      f+2     :    -0.000100
      f-2     :    -0.000328
      f+3     :    -0.000054
      f-3     :    -0.000055
 24 C s       :     0.025912  s :     0.025912
      pz      :     0.132627  p :     0.406074
      px      :     0.140902
      py      :     0.132545
      dz2     :     0.000830  d :     0.002264
      dxz     :     0.000493
      dyz     :    -0.000023
      dx2y2   :     0.000472
      dxy     :     0.000492
      f0      :    -0.000043  f :    -0.000818
      f+1     :    -0.000077
      f-1     :    -0.000077
      f+2     :    -0.000133
      f-2     :    -0.000328
      f+3     :    -0.000062
      f-3     :    -0.000098
 25 C s       :     0.000971  s :     0.000971
      pz      :     0.003287  p :     0.007931
      px      :     0.001363
      py      :     0.003280
      dz2     :    -0.000418  d :    -0.001732
      dxz     :    -0.000247
      dyz     :    -0.000376
      dx2y2   :    -0.000443
      dxy     :    -0.000247
      f0      :    -0.000034  f :    -0.000238
      f+1     :    -0.000032
      f-1     :    -0.000042
      f+2     :    -0.000055
      f-2     :    -0.000000
      f+3     :    -0.000027
      f-3     :    -0.000047
 26 C s       :     0.000970  s :     0.000970
      pz      :     0.003281  p :     0.007933
      px      :     0.003287
      py      :     0.001365
      dz2     :    -0.000418  d :    -0.001732
      dxz     :    -0.000376
      dyz     :    -0.000247
      dx2y2   :    -0.000444
      dxy     :    -0.000247
      f0      :    -0.000034  f :    -0.000238
      f+1     :    -0.000042
      f-1     :    -0.000032
      f+2     :    -0.000055
      f-2     :    -0.000000
      f+3     :    -0.000047
      f-3     :    -0.000027
 27 N s       :    -0.000887  s :    -0.000887
      pz      :     0.000643  p :     0.001929
      px      :     0.000643
      py      :     0.000643
      dz2     :     0.000192  d :     0.002760
      dxz     :     0.000792
      dyz     :     0.000792
      dx2y2   :     0.000192
      dxy     :     0.000792
      f0      :     0.000006  f :     0.000050
      f+1     :     0.000009
      f-1     :     0.000009
      f+2     :     0.000011
      f-2     :    -0.000002
      f+3     :     0.000008
      f-3     :     0.000008
 28 H s       :    -0.000024  s :    -0.000024
      pz      :     0.000078  p :     0.000212
      px      :     0.000067
      py      :     0.000067
 29 H s       :    -0.000811  s :    -0.000811
      pz      :     0.000003  p :     0.000033
      px      :     0.000015
      py      :     0.000015
 30 H s       :    -0.000032  s :    -0.000032
      pz      :     0.000069  p :     0.000202
      px      :     0.000065
      py      :     0.000069
 31 H s       :    -0.000793  s :    -0.000793
      pz      :    -0.000000  p :     0.000047
      px      :     0.000048
      py      :    -0.000000
 32 H s       :    -0.000793  s :    -0.000793
      pz      :    -0.000000  p :     0.000047
      px      :    -0.000000
      py      :     0.000047
 33 H s       :    -0.000032  s :    -0.000032
      pz      :     0.000068  p :     0.000201
      px      :     0.000068
      py      :     0.000065
 34 H s       :    -0.000032  s :    -0.000032
      pz      :     0.000065  p :     0.000202
      px      :     0.000069
      py      :     0.000069
 35 H s       :    -0.000793  s :    -0.000793
      pz      :     0.000048  p :     0.000047
      px      :    -0.000000
      py      :    -0.000000
 36 H s       :     0.000607  s :     0.000607
      pz      :     0.000142  p :     0.000174
      px      :     0.000008
      py      :     0.000024
 37 H s       :     0.000192  s :     0.000192
      pz      :     0.000087  p :     0.000105
      px      :    -0.000003
      py      :     0.000021
 38 H s       :     0.000194  s :     0.000194
      pz      :    -0.000004  p :     0.000105
      px      :     0.000088
      py      :     0.000021
 39 H s       :     0.000599  s :     0.000599
      pz      :     0.000008  p :     0.000174
      px      :     0.000141
      py      :     0.000024
 40 H s       :     0.000195  s :     0.000195
      pz      :     0.000088  p :     0.000105
      px      :     0.000021
      py      :    -0.000004
 41 H s       :     0.000599  s :     0.000599
      pz      :     0.000141  p :     0.000174
      px      :     0.000024
      py      :     0.000008
 42 H s       :     0.000606  s :     0.000606
      pz      :     0.000008  p :     0.000174
      px      :     0.000024
      py      :     0.000142
 43 H s       :     0.000192  s :     0.000192
      pz      :    -0.000003  p :     0.000105
      px      :     0.000021
      py      :     0.000087
 44 H s       :     0.000194  s :     0.000194
      pz      :     0.000021  p :     0.000105
      px      :    -0.000004
      py      :     0.000088
 45 H s       :     0.000599  s :     0.000599
      pz      :     0.000024  p :     0.000173
      px      :     0.000008
      py      :     0.000141
 46 H s       :     0.000606  s :     0.000606
      pz      :     0.000024  p :     0.000174
      px      :     0.000142
      py      :     0.000008
 47 H s       :     0.000192  s :     0.000192
      pz      :     0.000021  p :     0.000105
      px      :     0.000087
      py      :    -0.000003
 48 H s       :     0.000080  s :     0.000080
      pz      :     0.000016  p :     0.000073
      px      :     0.000029
      py      :     0.000029
 49 H s       :     0.000080  s :     0.000080
      pz      :     0.000029  p :     0.000073
      px      :     0.000029
      py      :     0.000016
 50 H s       :     0.000080  s :     0.000080
      pz      :     0.000029  p :     0.000073
      px      :     0.000016
      py      :     0.000029
 51 H s       :     0.028823  s :     0.028823
      pz      :    -0.000061  p :     0.000683
      px      :     0.000372
      py      :     0.000372
 52 H s       :     0.028824  s :     0.028824
      pz      :     0.000372  p :     0.000684
      px      :     0.000372
      py      :    -0.000061
 53 H s       :     0.028823  s :     0.028823
      pz      :     0.000372  p :     0.000683
      px      :    -0.000061
      py      :     0.000372
 54 H s       :     0.033389  s :     0.033389
      pz      :     0.000797  p :     0.001344
      px      :     0.000594
      py      :    -0.000048
 55 H s       :     0.033395  s :     0.033395
      pz      :     0.000594  p :     0.001343
      px      :     0.000797
      py      :    -0.000048
 56 H s       :     0.033391  s :     0.033391
      pz      :     0.000796  p :     0.001343
      px      :    -0.000048
      py      :     0.000594
 57 H s       :     0.033389  s :     0.033389
      pz      :     0.000594  p :     0.001344
      px      :    -0.000048
      py      :     0.000797
 58 H s       :     0.033395  s :     0.033395
      pz      :    -0.000048  p :     0.001343
      px      :     0.000594
      py      :     0.000796
 59 H s       :     0.033385  s :     0.033385
      pz      :    -0.000048  p :     0.001344
      px      :     0.000797
      py      :     0.000594
 60 H s       :    -0.000811  s :    -0.000811
      pz      :     0.000015  p :     0.000033
      px      :     0.000003
      py      :     0.000015
 61 H s       :    -0.000024  s :    -0.000024
      pz      :     0.000067  p :     0.000212
      px      :     0.000078
      py      :     0.000067
 62 H s       :    -0.000025  s :    -0.000025
      pz      :     0.000067  p :     0.000212
      px      :     0.000067
      py      :     0.000078
 63 H s       :    -0.000811  s :    -0.000811
      pz      :     0.000015  p :     0.000033
      px      :     0.000015
      py      :     0.000003


                      *****************************
                      * MAYER POPULATION ANALYSIS *
                      *****************************

  NA   - Mulliken gross atomic population
  ZA   - Total nuclear charge
  QA   - Mulliken gross atomic charge
  VA   - Mayer's total valence
  BVA  - Mayer's bonded valence
  FA   - Mayer's free valence

  ATOM       NA         ZA         QA         VA         BVA        FA
  0 C      5.9894     6.0000     0.0106     3.8049     3.6277     0.1773
  1 C      6.1078     6.0000    -0.1078     4.0787     4.0786     0.0001
  2 C      6.0954     6.0000    -0.0954     4.0831     4.0825     0.0006
  3 C      6.0957     6.0000    -0.0957     4.0831     4.0825     0.0006
  4 C      6.0954     6.0000    -0.0954     4.0831     4.0825     0.0006
  5 C      6.1270     6.0000    -0.1270     4.1364     4.1359     0.0005
  6 C      6.1267     6.0000    -0.1267     4.1370     4.1365     0.0005
  7 C      6.1267     6.0000    -0.1267     4.1370     4.1366     0.0005
  8 C      6.1269     6.0000    -0.1269     4.1364     4.1360     0.0005
  9 C      6.1267     6.0000    -0.1267     4.1370     4.1365     0.0005
 10 C      6.1270     6.0000    -0.1270     4.1365     4.1360     0.0005
 11 C      6.0058     6.0000    -0.0058     4.0495     4.0495     0.0000
 12 C      6.0057     6.0000    -0.0057     4.0494     4.0494     0.0000
 13 C      6.0058     6.0000    -0.0058     4.0495     4.0495     0.0000
 14 C      6.0127     6.0000    -0.0127     4.1516     4.1502     0.0013
 15 C      6.0126     6.0000    -0.0126     4.1515     4.1502     0.0013
 16 C      6.0127     6.0000    -0.0127     4.1516     4.1502     0.0013
 17 C      5.9775     6.0000     0.0225     4.0834     4.0811     0.0023
 18 C      5.9774     6.0000     0.0226     4.0825     4.0802     0.0023
 19 C      5.9773     6.0000     0.0227     4.0824     4.0801     0.0023
 20 C      5.9775     6.0000     0.0225     4.0834     4.0811     0.0023
 21 C      5.9774     6.0000     0.0226     4.0825     4.0802     0.0023
 22 C      5.9774     6.0000     0.0226     4.0832     4.0809     0.0023
 23 C      5.9894     6.0000     0.0106     3.8049     3.6276     0.1773
 24 C      5.9894     6.0000     0.0106     3.8049     3.6276     0.1773
 25 C      6.1078     6.0000    -0.1078     4.0787     4.0786     0.0001
 26 C      6.1075     6.0000    -0.1075     4.0787     4.0787     0.0001
 27 N      6.9487     7.0000     0.0513     3.2380     3.2379     0.0001
 28 H      0.9618     1.0000     0.0382     1.0028     1.0028     0.0000
 29 H      0.9471     1.0000     0.0529     0.9832     0.9832     0.0000
 30 H      0.9565     1.0000     0.0435     1.0068     1.0068     0.0000
 31 H      0.9522     1.0000     0.0478     0.9847     0.9847     0.0000
 32 H      0.9521     1.0000     0.0479     0.9846     0.9846     0.0000
 33 H      0.9567     1.0000     0.0433     1.0069     1.0069     0.0000
 34 H      0.9565     1.0000     0.0435     1.0068     1.0068     0.0000
 35 H      0.9522     1.0000     0.0478     0.9847     0.9847     0.0000
 36 H      0.9559     1.0000     0.0441     1.0004     1.0004     0.0000
 37 H      0.9317     1.0000     0.0683     0.9792     0.9792     0.0000
 38 H      0.9321     1.0000     0.0679     0.9793     0.9793     0.0000
 39 H      0.9553     1.0000     0.0447     1.0002     1.0002     0.0000
 40 H      0.9321     1.0000     0.0679     0.9793     0.9793     0.0000
 41 H      0.9553     1.0000     0.0447     1.0002     1.0002     0.0000
 42 H      0.9559     1.0000     0.0441     1.0004     1.0004     0.0000
 43 H      0.9317     1.0000     0.0683     0.9792     0.9792     0.0000
 44 H      0.9321     1.0000     0.0679     0.9793     0.9793     0.0000
 45 H      0.9553     1.0000     0.0447     1.0002     1.0002     0.0000
 46 H      0.9559     1.0000     0.0441     1.0004     1.0004     0.0000
 47 H      0.9317     1.0000     0.0683     0.9792     0.9792     0.0000
 48 H      1.0715     1.0000    -0.0715     0.9757     0.9757    -0.0000
 49 H      1.0715     1.0000    -0.0715     0.9757     0.9757    -0.0000
 50 H      1.0715     1.0000    -0.0715     0.9757     0.9757    -0.0000
 51 H      1.0884     1.0000    -0.0884     0.9684     0.9618     0.0066
 52 H      1.0884     1.0000    -0.0884     0.9684     0.9618     0.0066
 53 H      1.0884     1.0000    -0.0884     0.9684     0.9618     0.0066
 54 H      1.0892     1.0000    -0.0892     0.9729     0.9639     0.0090
 55 H      1.0892     1.0000    -0.0892     0.9729     0.9639     0.0090
 56 H      1.0892     1.0000    -0.0892     0.9729     0.9639     0.0090
 57 H      1.0892     1.0000    -0.0892     0.9729     0.9639     0.0090
 58 H      1.0892     1.0000    -0.0892     0.9729     0.9639     0.0090
 59 H      1.0891     1.0000    -0.0891     0.9729     0.9639     0.0090
 60 H      0.9471     1.0000     0.0529     0.9832     0.9832     0.0000
 61 H      0.9618     1.0000     0.0382     1.0028     1.0028     0.0000
 62 H      0.9616     1.0000     0.0384     1.0027     1.0027     0.0000
 63 H      0.9472     1.0000     0.0528     0.9832     0.9832     0.0000

  Mayer bond orders larger than 0.100000
B(  0-C , 15-C ) :   1.0821 B(  0-C , 20-C ) :   1.0621 B(  0-C , 21-C ) :   1.0618 
B(  0-C , 23-C ) :   0.1686 B(  0-C , 24-C ) :   0.1686 B(  1-C , 15-C ) :   1.0462 
B(  1-C , 16-C ) :   1.0463 B(  1-C , 28-H ) :   0.8906 B(  1-C , 29-H ) :   0.9342 
B(  2-C , 17-C ) :   1.0506 B(  2-C , 21-C ) :   1.0505 B(  2-C , 30-H ) :   0.8934 
B(  2-C , 31-H ) :   0.9306 B(  3-C , 19-C ) :   1.0505 B(  3-C , 22-C ) :   1.0505 
B(  3-C , 32-H ) :   0.9306 B(  3-C , 33-H ) :   0.8933 B(  4-C , 18-C ) :   1.0505 
B(  4-C , 20-C ) :   1.0506 B(  4-C , 34-H ) :   0.8934 B(  4-C , 35-H ) :   0.9306 
B(  5-C , 13-C ) :   1.0353 B(  5-C , 17-C ) :   1.0493 B(  5-C , 36-H ) :   0.8871 
B(  5-C , 37-H ) :   0.9391 B(  6-C , 11-C ) :   1.0355 B(  6-C , 18-C ) :   1.0492 
B(  6-C , 38-H ) :   0.9392 B(  6-C , 39-H ) :   0.8875 B(  7-C , 12-C ) :   1.0355 
B(  7-C , 19-C ) :   1.0492 B(  7-C , 40-H ) :   0.9392 B(  7-C , 41-H ) :   0.8876 
B(  8-C , 11-C ) :   1.0353 B(  8-C , 20-C ) :   1.0493 B(  8-C , 42-H ) :   0.8871 
B(  8-C , 43-H ) :   0.9391 B(  9-C , 13-C ) :   1.0355 B(  9-C , 21-C ) :   1.0493 
B(  9-C , 44-H ) :   0.9392 B(  9-C , 45-H ) :   0.8875 B( 10-C , 12-C ) :   1.0353 
B( 10-C , 22-C ) :   1.0493 B( 10-C , 46-H ) :   0.8871 B( 10-C , 47-H ) :   0.9391 
B( 11-C , 27-N ) :   1.0423 B( 11-C , 48-H ) :   0.8517 B( 12-C , 27-N ) :   1.0423 
B( 12-C , 49-H ) :   0.8517 B( 13-C , 27-N ) :   1.0423 B( 13-C , 50-H ) :   0.8517 
B( 14-C , 23-C ) :   1.0821 B( 14-C , 25-C ) :   1.0462 B( 14-C , 26-C ) :   1.0463 
B( 14-C , 51-H ) :   0.8122 B( 15-C , 25-C ) :   1.0463 B( 15-C , 52-H ) :   0.8122 
B( 16-C , 24-C ) :   1.0821 B( 16-C , 26-C ) :   1.0462 B( 16-C , 53-H ) :   0.8122 
B( 17-C , 23-C ) :   1.0621 B( 17-C , 54-H ) :   0.8010 B( 18-C , 24-C ) :   1.0618 
B( 18-C , 55-H ) :   0.8009 B( 19-C , 23-C ) :   1.0618 B( 19-C , 56-H ) :   0.8009 
B( 20-C , 57-H ) :   0.8010 B( 21-C , 58-H ) :   0.8009 B( 22-C , 24-C ) :   1.0621 
B( 22-C , 59-H ) :   0.8010 B( 23-C , 24-C ) :   0.1686 B( 25-C , 60-H ) :   0.9342 
B( 25-C , 61-H ) :   0.8906 B( 26-C , 62-H ) :   0.8907 B( 26-C , 63-H ) :   0.9342 


-------
TIMINGS
-------

Total SCF time: 0 days 0 hours 0 min 53 sec 

Total time                  ....      53.509 sec
Sum of individual times     ....      48.011 sec  ( 89.7%)

Fock matrix formation       ....      28.349 sec  ( 53.0%)
  Split-RI-J                ....      10.373 sec  ( 36.6% of F)
  XC integration            ....      11.417 sec  ( 40.3% of F)
    Basis function eval.    ....       0.386 sec  (  3.4% of XC)
    Density eval.           ....       1.617 sec  ( 14.2% of XC)
    XC-Functional eval.     ....       0.208 sec  (  1.8% of XC)
    XC-Potential eval.      ....       1.870 sec  ( 16.4% of XC)
Diagonalization             ....       6.314 sec  ( 11.8%)
Density matrix formation    ....       0.438 sec  (  0.8%)
Population analysis         ....       1.635 sec  (  3.1%)
Initial guess               ....       1.677 sec  (  3.1%)
Orbital Transformation      ....       0.000 sec  (  0.0%)
Orbital Orthonormalization  ....       1.474 sec  (  2.8%)
DIIS solution               ....       7.863 sec  ( 14.7%)
Grid generation             ....       1.736 sec  (  3.2%)

-------------------------   --------------------
FINAL SINGLE POINT ENERGY     -1103.915414890292
-------------------------   --------------------

                                *** OPTIMIZATION RUN DONE ***

                            ***************************************
                            *     ORCA property calculations      *
                            ***************************************

                                    ---------------------
                                    Active property flags
                                    ---------------------
   (+) Dipole Moment


------------------------------------------------------------------------------
                       ORCA ELECTRIC PROPERTIES CALCULATION
------------------------------------------------------------------------------

Dipole Moment Calculation                       ... on
Quadrupole Moment Calculation                   ... off
Polarizability Calculation                      ... off
GBWName                                         ... nv.gbw
Electron density file                           ... nv.scfp
The origin for moment calculation is the CENTER OF MASS  = (13.480768, 13.480894 13.480764)

-------------
DIPOLE MOMENT
-------------
                                X             Y             Z
Electronic contribution:     -0.44534      -0.44638      -0.44529
Nuclear contribution   :      0.05286       0.05402       0.05282
                        -----------------------------------------
Total Dipole Moment    :     -0.39247      -0.39236      -0.39247
                        -----------------------------------------
Magnitude (a.u.)       :      0.67972
Magnitude (Debye)      :      1.72770



--------------------
Rotational spectrum 
--------------------
 
Rotational constants in cm-1:     0.008696     0.008516     0.008516 
Rotational constants in MHz :   260.698084   255.307492   255.303576 

 Dipole components along the rotational axes: 
x,y,z [a.u.] :    -0.679717    -0.000062    -0.000001 
x,y,z [Debye]:    -1.727704    -0.000158    -0.000002 

 

Timings for individual modules:

Sum of individual times         ...     1900.266 sec (=  31.671 min)
GTO integral calculation        ...      117.887 sec (=   1.965 min)   6.2 %
SCF iterations                  ...     1433.332 sec (=  23.889 min)  75.4 %
SCF Gradient evaluation         ...      314.416 sec (=   5.240 min)  16.5 %
Geometry relaxation             ...       34.631 sec (=   0.577 min)   1.8 %
                             ****ORCA TERMINATED NORMALLY****
TOTAL RUN TIME: 0 days 0 hours 32 minutes 18 seconds 646 msec
