
                                 *****************
                                 * O   R   C   A *
                                 *****************

           --- An Ab Initio, DFT and Semiempirical electronic structure package ---

                  #######################################################
                  #                        -***-                        #
                  #          Department of theory and spectroscopy      #
                  #               Directorship: Frank Neese             #
                  #        Max Planck Institute fuer Kohlenforschung    #
                  #                Kaiser Wilhelm Platz 1               #
                  #                 D-45470 Muelheim/Ruhr               #
                  #                      Germany                        #
                  #                                                     #
                  #                  All rights reserved                #
                  #                        -***-                        #
                  #######################################################


                         Program Version 4.2.1 -  RELEASE  -


 With contributions from (in alphabetic order):
   Daniel Aravena         : Magnetic Suceptibility
   Michael Atanasov       : Ab Initio Ligand Field Theory (pilot matlab implementation)
   Alexander A. Auer      : GIAO ZORA, VPT2
   Ute Becker             : Parallelization
   Giovanni Bistoni       : ED, misc. LED, open-shell LED, HFLD
   Martin Brehm           : Molecular dynamics
   Dmytro Bykov           : SCF Hessian
   Vijay G. Chilkuri      : MRCI spin determinant printing, contributions to CSF-ICE
   Dipayan Datta          : RHF DLPNO-CCSD density
   Achintya Kumar Dutta   : EOM-CC, STEOM-CC
   Dmitry Ganyushin       : Spin-Orbit,Spin-Spin,Magnetic field MRCI
   Miquel Garcia          : C-PCM Hessian, Gaussian charge scheme
   Yang Guo               : DLPNO-NEVPT2, CIM, IAO-localization
   Andreas Hansen         : Spin unrestricted coupled pair/coupled cluster methods
   Benjamin Helmich-Paris : CASSCF linear response (MC-RPA)
   Lee Huntington         : MR-EOM, pCC
   Robert Izsak           : Overlap fitted RIJCOSX, COSX-SCS-MP3, EOM
   Christian Kollmar      : KDIIS, OOCD, Brueckner-CCSD(T), CCSD density
   Simone Kossmann        : Meta GGA functionals, TD-DFT gradient, OOMP2, MP2 Hessian
   Martin Krupicka        : AUTO-CI
   Lucas Lang             : DCDCAS
   Dagmar Lenk            : GEPOL surface, SMD
   Dimitrios Liakos       : Extrapolation schemes; Compound Job, initial MDCI parallelization
   Dimitrios Manganas     : Further ROCIS development; embedding schemes
   Dimitrios Pantazis     : SARC Basis sets
   Taras Petrenko         : DFT Hessian,TD-DFT gradient, ASA, ECA, R-Raman, ABS, FL, XAS/XES, NRVS
   Peter Pinski           : DLPNO-MP2, DLPNO-MP2 Gradient
   Christoph Reimann      : Effective Core Potentials
   Marius Retegan         : Local ZFS, SOC
   Christoph Riplinger    : Optimizer, TS searches, QM/MM, DLPNO-CCSD(T), (RO)-DLPNO pert. Triples
   Tobias Risthaus        : Range-separated hybrids, TD-DFT gradient, RPA, STAB
   Michael Roemelt        : Original ROCIS implementation
   Masaaki Saitow         : Open-shell DLPNO-CCSD energy and density
   Barbara Sandhoefer     : DKH picture change effects
   Avijit Sen             : IP-ROCIS
   Kantharuban Sivalingam : CASSCF convergence, NEVPT2, FIC-MRCI
   Bernardo de Souza      : ESD, SOC TD-DFT
   Georgi Stoychev        : AutoAux, RI-MP2 NMR
   Willem Van den Heuvel  : Paramagnetic NMR
   Boris Wezisla          : Elementary symmetry handling
   Frank Wennmohs         : Technical directorship


 We gratefully acknowledge several colleagues who have allowed us to
 interface, adapt or use parts of their codes:
   Stefan Grimme, W. Hujo, H. Kruse,             : VdW corrections, initial TS optimization,
                  C. Bannwarth                     DFT functionals, gCP, sTDA/sTD-DF
   Ed Valeev, F. Pavosevic, A. Kumar             : LibInt (2-el integral package), F12 methods
   Garnet Chan, S. Sharma, J. Yang, R. Olivares  : DMRG
   Ulf Ekstrom                                   : XCFun DFT Library
   Mihaly Kallay                                 : mrcc  (arbitrary order and MRCC methods)
   Andreas Klamt, Michael Diedenhofen            : otool_cosmo (COSMO solvation model)
   Jiri Pittner, Ondrej Demel                    : Mk-CCSD
   Frank Weinhold                                : gennbo (NPA and NBO analysis)
   Christopher J. Cramer and Donald G. Truhlar   : smd solvation model
   Lars Goerigk                                  : TD-DFT with DH, B97 family of functionals
   V. Asgeirsson, H. Jonsson                     : NEB implementation
   FAccTs GmbH                                   : IRC, NEB, NEB-TS, Multilevel, MM, QM/MM, CI optimization
   S Lehtola, MJT Oliveira, MAL Marques          : LibXC Library


 Your calculation uses the libint2 library for the computation of 2-el integrals
 For citations please refer to: http://libint.valeyev.net

 Your ORCA version has been built with support for libXC version: 4.2.3
 For citations please refer to: https://tddft.org/programs/libxc/

 This ORCA versions uses:
   CBLAS   interface :  Fast vector & matrix operations
   LAPACKE interface :  Fast linear algebra routines
   SCALAPACK package :  Parallel linear algebra routines




***************************************
The coordinates will be read from file: nv.xyz
***************************************


----- Orbital basis set information -----
Your calculation utilizes the basis: EPR-II
   V. Barone, in Recent Advances in Density Functional Methods, Part 1 (ed. D. P. Chong), World Scientific, Singapore, 1995, p. 287.

----- AuxJ basis set information -----
Your calculation utilizes the AutoAux generation procedure.
  G. L. Stoychev, A. A. Auer, F. Neese, J. Chem. Theory Comput. 13, 554 (2017)

----- AuxC basis set information -----
Your calculation utilizes the AutoAux generation procedure.
  G. L. Stoychev, A. A. Auer, F. Neese, J. Chem. Theory Comput. 13, 554 (2017)

----- AuxJK basis set information -----
Your calculation utilizes the AutoAux generation procedure.
  G. L. Stoychev, A. A. Auer, F. Neese, J. Chem. Theory Comput. 13, 554 (2017)

================================================================================
                                        WARNINGS
                       Please study these warnings very carefully!
================================================================================


WARNING: your system is open-shell and RHF/RKS was chosen
  ===> : WILL SWITCH to UHF/UKS


INFO   : the flag for use of LIBINT has been found!

================================================================================
                                       INPUT FILE
================================================================================
NAME = zfs.in
|  1> # Use EPR-II is a special basis set for epr, autoaux creates a large auxiliary basis
|  2> !PBE EPR-II AUTOAUX RIJCOSX
|  3> 
|  4> # use original (unoptimized) cluster xyz
|  5> *xyzfile -1 3 nv.xyz
|  6> 
|  7> # Parallelization
|  8> %PAL NPROCS 72 END
|  9> 
| 10> # ZFS calculation
| 11> %EPRNMR DTENSOR SSANDSO
| 12>     DSS     UNO
| 13>     DSOC    CP
| 14> END
| 15> 
| 16>                          ****END OF INPUT****
================================================================================

                       ****************************
                       * Single Point Calculation *
                       ****************************

---------------------------------
CARTESIAN COORDINATES (ANGSTROEM)
---------------------------------
  C      0.100725    1.536310   -2.249811
  C      1.305490    0.643865   -4.258023
  C     -2.414071    1.613159   -2.199697
  C     -0.189951   -2.897147   -2.199804
  C      2.604026    1.284149   -2.199700
  C     -2.496498    0.156416   -0.144983
  C      2.495549   -0.170887   -0.144986
  C     -1.395768   -2.075760   -0.145035
  C      1.383705    2.083829   -0.144933
  C     -1.099780    2.246658   -0.144931
  C      1.112794   -2.240234   -0.145037
  C      1.275258    0.628844    0.395617
  C     -0.093025   -1.418843    0.395566
  C     -1.182234    0.789970    0.395618
  C     -1.308722   -0.645265   -3.737621
  C      0.095468    1.456159   -3.737569
  C      1.213261   -0.810619   -3.737623
  C     -2.495625    0.157104   -1.693673
  C      2.494771   -0.170090   -1.693676
  C     -1.394720   -2.075427   -1.693726
  C      1.383833    2.082786   -1.693623
  C     -1.100047    2.245641   -1.693621
  C      1.111795   -2.239766   -1.693727
  C     -1.380796   -0.680842   -2.249865
  C      1.280075   -0.855302   -2.249867
  C     -1.210255    0.808810   -4.258021
  C     -0.095227   -1.452362   -4.258075
  N      0.000000    0.000000    0.000000
  H      2.212320    1.091032   -3.907906
  H      1.299061    0.640721   -5.328003
  H     -2.428666    1.622939   -3.269544
  H     -3.249898    2.171658   -1.833101
  H     -0.255560   -3.897836   -1.826663
  H     -0.191558   -2.921636   -3.269519
  H      2.619771    1.291939   -3.269548
  H      3.505620    1.728733   -1.833106
  H     -2.573920   -0.850863    0.207581
  H     -3.329076    0.731394    0.203028
  H      3.398633    0.281725    0.207839
  H      2.431760   -1.180786    0.202756
  H     -1.455329   -3.084174    0.207753
  H     -2.238465   -1.515580    0.202744
  H      0.550093    2.654505    0.207668
  H      2.297946    2.517360    0.203076
  H     -1.943304    2.802433    0.207895
  H     -0.193295    2.696351    0.202848
  H      2.023826   -1.803657    0.207562
  H      1.031130   -3.248769    0.202936
  H      1.286461    0.634343    1.465539
  H     -0.093843   -1.431335    1.465488
  H     -1.192621    0.796884    1.465541
  H     -2.210015   -1.089702   -4.105093
  H      0.161214    2.458934   -4.105005
  H      2.048809   -1.368931   -4.105096
  H     -3.406972   -0.284051   -2.039696
  H      3.340714   -0.726462   -2.039701
  H     -2.299531   -2.529837   -2.039749
  H      1.457447    3.092626   -2.039611
  H     -1.041180    3.256448   -2.039609
  H      1.949528   -2.808426   -2.039752
  H     -1.204484    0.804980   -5.328007
  H     -2.050881    1.370515   -3.907684
  H     -0.161376   -2.461296   -3.907994
  H     -0.094757   -1.445182   -5.328055

----------------------------
CARTESIAN COORDINATES (A.U.)
----------------------------
  NO LB      ZA    FRAG     MASS         X           Y           Z
   0 C     6.0000    0    12.011    0.190342    2.903205   -4.251526
   1 C     6.0000    0    12.011    2.467018    1.216729   -8.046497
   2 C     6.0000    0    12.011   -4.561933    3.048430   -4.156825
   3 C     6.0000    0    12.011   -0.358955   -5.474814   -4.157026
   4 C     6.0000    0    12.011    4.920897    2.426689   -4.156831
   5 C     6.0000    0    12.011   -4.717698    0.295583   -0.273977
   6 C     6.0000    0    12.011    4.715904   -0.322929   -0.273984
   7 C     6.0000    0    12.011   -2.637620   -3.922619   -0.274077
   8 C     6.0000    0    12.011    2.614823    3.937865   -0.273883
   9 C     6.0000    0    12.011   -2.078284    4.245568   -0.273880
  10 C     6.0000    0    12.011    2.102875   -4.233428   -0.274081
  11 C     6.0000    0    12.011    2.409888    1.188344    0.747607
  12 C     6.0000    0    12.011   -0.175791   -2.681225    0.747512
  13 C     6.0000    0    12.011   -2.234098    1.492826    0.747611
  14 C     6.0000    0    12.011   -2.473125   -1.219375   -7.063080
  15 C     6.0000    0    12.011    0.180409    2.751741   -7.062982
  16 C     6.0000    0    12.011    2.292730   -1.531848   -7.063084
  17 C     6.0000    0    12.011   -4.716048    0.296884   -3.200578
  18 C     6.0000    0    12.011    4.714433   -0.321424   -3.200585
  19 C     6.0000    0    12.011   -2.635640   -3.921988   -3.200678
  20 C     6.0000    0    12.011    2.615066    3.935895   -3.200484
  21 C     6.0000    0    12.011   -2.078788    4.243647   -3.200481
  22 C     6.0000    0    12.011    2.100989   -4.232545   -3.200681
  23 C     6.0000    0    12.011   -2.609326   -1.286606   -4.251629
  24 C     6.0000    0    12.011    2.418992   -1.616287   -4.251633
  25 C     6.0000    0    12.011   -2.287050    1.528429   -8.046494
  26 C     6.0000    0    12.011   -0.179953   -2.744566   -8.046595
  27 N     7.0000    0    14.007    0.000000    0.000000    0.000000
  28 H     1.0000    0     1.008    4.180678    2.061751   -7.384872
  29 H     1.0000    0     1.008    2.454870    1.210787  -10.068467
  30 H     1.0000    0     1.008   -4.589514    3.066910   -6.178543
  31 H     1.0000    0     1.008   -6.141417    4.103838   -3.464060
  32 H     1.0000    0     1.008   -0.482938   -7.365843   -3.451893
  33 H     1.0000    0     1.008   -0.361991   -5.521092   -6.178495
  34 H     1.0000    0     1.008    4.950651    2.441410   -6.178550
  35 H     1.0000    0     1.008    6.624662    3.266832   -3.464069
  36 H     1.0000    0     1.008   -4.864003   -1.607898    0.392271
  37 H     1.0000    0     1.008   -6.291042    1.382134    0.383668
  38 H     1.0000    0     1.008    6.422485    0.532384    0.392758
  39 H     1.0000    0     1.008    4.595360   -2.231362    0.383154
  40 H     1.0000    0     1.008   -2.750173   -5.828243    0.392597
  41 H     1.0000    0     1.008   -4.230085   -2.864031    0.383131
  42 H     1.0000    0     1.008    1.039526    5.016287    0.392436
  43 H     1.0000    0     1.008    4.342488    4.757121    0.383759
  44 H     1.0000    0     1.008   -3.672313    5.295831    0.392864
  45 H     1.0000    0     1.008   -0.365275    5.095365    0.383326
  46 H     1.0000    0     1.008    3.824476   -3.408417    0.392235
  47 H     1.0000    0     1.008    1.948554   -6.139283    0.383494
  48 H     1.0000    0     1.008    2.431059    1.198735    2.769468
  49 H     1.0000    0     1.008   -0.177337   -2.704831    2.769372
  50 H     1.0000    0     1.008   -2.253727    1.505892    2.769471
  51 H     1.0000    0     1.008   -4.176323   -2.059238   -7.757501
  52 H     1.0000    0     1.008    0.304650    4.646712   -7.757336
  53 H     1.0000    0     1.008    3.871688   -2.586905   -7.757507
  54 H     1.0000    0     1.008   -6.438243   -0.536778   -3.854467
  55 H     1.0000    0     1.008    6.313035   -1.372814   -3.854476
  56 H     1.0000    0     1.008   -4.345483   -4.780699   -3.854568
  57 H     1.0000    0     1.008    2.754176    5.844217   -3.854305
  58 H     1.0000    0     1.008   -1.967545    6.153796   -3.854302
  59 H     1.0000    0     1.008    3.684075   -5.307155   -3.854573
  60 H     1.0000    0     1.008   -2.276144    1.521191  -10.068475
  61 H     1.0000    0     1.008   -3.875604    2.589899   -7.384452
  62 H     1.0000    0     1.008   -0.304957   -4.651176   -7.385038
  63 H     1.0000    0     1.008   -0.179065   -2.730999  -10.068564

--------------------------------
INTERNAL COORDINATES (ANGSTROEM)
--------------------------------
 C      0   0   0     0.000000000000     0.00000000     0.00000000
 C      1   0   0     2.506159188396     0.00000000     0.00000000
 C      1   2   0     2.516468737344   120.47980032     0.00000000
 C      2   1   3     4.360203420524    75.28951498   283.77948097
 C      1   2   3     2.516468891262    60.13666441   174.71907257
 C      3   1   2     2.520068779960    91.79194711   121.28833100
 C      5   1   2     2.520068762740    91.79201993   236.05607765
 C      6   3   1     2.488818367967   120.26272269   304.19020215
 C      7   5   1     2.513948947851    60.08027954   306.41229828
 C      9   7   5     2.488817351556   120.00002881   109.82545099
 C      7   5   1     2.488816777440   120.26270159    55.80983232
 C      7   5   1     1.555934702235    91.16206224   325.68709313
 C      8   6   3     1.555934051807    89.52038813    91.06561730
 C      6   3   1     1.555934061618    91.16212212    34.31292442
 C      3   1   2     2.947455098583    65.88562639    32.41919377
 C      1   2   3     1.489925410431    35.15414081   323.08151362
 C      2   1   3     1.547529030660    92.09616881   273.73521375
 C      3   1   2     1.543634497389    91.74891422    85.78589530
 C      5   1   2     1.543634475653    91.74900363   271.55851523
 C      4   2   1     1.543634426266    89.43441787    30.89183771
 C      1   2   3     1.501448810345    90.89532353   191.81515950
 C      1   2   3     1.501449345665   148.15946930   329.09681938
 C      4   2   1     1.543633746853    61.29331668   278.87882688
 C     15   3   1     1.489925437912    58.60967737    79.25168917
 C     17   2   1     1.489925476667   111.18022711   326.95804090
 C     16   1   2     1.547528289793   111.18021294   121.75553489
 C     17   2   1     1.547528291805   109.09004218    89.92306831
 N     12   7   5     1.475886138805   111.44049750    93.52608411
 H      2   1   3     1.069990717196    89.79352601   164.26253074
 H      2   1   3     1.070004294789   143.07770562    40.86734303
 H      3   1   2     1.069991509770    89.65616667   336.17389654
 H      3   1   2     1.070008908133   143.45442869   213.40182393
 H      4   2   1     1.070008630342   160.93593847   213.27452147
 H      4   2   1     1.069996784557    63.07524129   143.53512802
 H     29   2   1     0.783506147986   144.53757489    32.14134805
 H      5   1   2     1.070008456719   143.45441157   143.94258788
 H      6   3   1     1.070002931472   144.60622174   267.56155980
 H      6   3   1     1.069998802080    88.85452188   143.28877488
 H      7   5   1     1.070001690345    89.32902229   216.43024002
 H      7   5   1     1.069995563905   144.34073003    91.60649886
 H      8   6   3     1.070002206573   145.14813576   215.49452431
 H     37   6   3     0.744581473855   143.67474236    62.06104384
 H      9   7   5     1.070002897553   145.37732655   145.27378867
 H      9   7   5     1.069998337667    89.16959386   270.84373780
 H     10   9   7     1.070002154134   145.14812966   144.76011293
 H     43   9   7     0.744581167123   143.67473627   300.54055363
 H     40   7   5     0.744581003291   145.51897278   298.58473549
 H     11   7   5     1.069998827149   145.69948102   144.51454586
 H     12   7   5     1.069995472818   109.98972403   211.05044891
 H     13   8   6     1.069995477083   109.98975812    90.79100389
 H     14   6   3     1.069995466065   109.98975813   148.94952875
 H     15   3   1     1.069995020240   100.46116420   182.87308405
 H     16   1   2     1.069995530864   106.99377718   240.87773470
 H     17   2   1     1.069995470445   109.17096219   209.14698709
 H     18   3   1     1.070001083175   109.14081204   209.46733766
 H     19   5   1     1.070001544139   109.14088142   150.53266271
 H     20   4   2     1.070001076777   109.14085337   120.92648835
 H     21   1   2     1.070001584152   106.41034517    92.35939566
 H     22   1   2     1.070001595395   106.41041639   291.94871448
 H     23   4   2     1.070001548276   109.14085331   258.30749265
 H     26  16   1     1.070008557450   109.46621820   177.47400829
 H     31   3   1     0.783365299415   143.60830346    31.99437319
 H     34   4   2     0.787701493799   142.83583396   341.07939124
 H     27  17   2     1.070004297027   109.46009779    59.54970990

---------------------------
INTERNAL COORDINATES (A.U.)
---------------------------
 C      0   0   0     0.000000000000     0.00000000     0.00000000
 C      1   0   0     4.735954514079     0.00000000     0.00000000
 C      1   2   0     4.755436738154   120.47980032     0.00000000
 C      2   1   3     8.239590352977    75.28951498   283.77948097
 C      1   2   3     4.755437029017    60.13666441   174.71907257
 C      3   1   2     4.762239832770    91.79194711   121.28833100
 C      5   1   2     4.762239800229    91.79201993   236.05607765
 C      6   3   1     4.703185112530   120.26272269   304.19020215
 C      7   5   1     4.750675026098    60.08027954   306.41229828
 C      9   7   5     4.703183191793   120.00002881   109.82545099
 C      7   5   1     4.703182106870   120.26270159    55.80983232
 C      7   5   1     2.940290469488    91.16206224   325.68709313
 C      8   6   3     2.940289240357    89.52038813    91.06561730
 C      6   3   1     2.940289258899    91.16212212    34.31292442
 C      3   1   2     5.569882928352    65.88562639    32.41919377
 C      1   2   3     2.815550985685    35.15414081   323.08151362
 C      2   1   3     2.924406052240    92.09616881   273.73521375
 C      3   1   2     2.917046450938    91.74891422    85.78589530
 C      5   1   2     2.917046409864    91.74900363   271.55851523
 C      4   2   1     2.917046316535    89.43441787    30.89183771
 C      1   2   3     2.837327055655    90.89532353   191.81515950
 C      1   2   3     2.837328067262   148.15946930   329.09681938
 C      4   2   1     2.917045032631    61.29331668   278.87882688
 C     15   3   1     2.815551037616    58.60967737    79.25168917
 C     17   2   1     2.815551110854   111.18022711   326.95804090
 C     16   1   2     2.924404652203   111.18021294   121.75553489
 C     17   2   1     2.924404656007   109.09004218    89.92306831
 N     12   7   5     2.789020607191   111.44049750    93.52608411
 H      2   1   3     2.021989421339    89.79352601   164.26253074
 H      2   1   3     2.022015079271   143.07770562    40.86734303
 H      3   1   2     2.021990919085    89.65616667   336.17389654
 H      3   1   2     2.022023797227   143.45442869   213.40182393
 H      4   2   1     2.022023272278   160.93593847   213.27452147
 H      4   2   1     2.022000886988    63.07524129   143.53512802
 H     29   2   1     1.480612043937   144.53757489    32.14134805
 H      5   1   2     2.022022944178   143.45441157   143.94258788
 H      6   3   1     2.022012502975   144.60622174   267.56155980
 H      6   3   1     2.022004699555    88.85452188   143.28877488
 H      7   5   1     2.022010157584    89.32902229   216.43024002
 H      7   5   1     2.021998580290   144.34073003    91.60649886
 H      8   6   3     2.022011133114   145.14813576   215.49452431
 H     37   6   3     1.407055069978   143.67474236    62.06104384
 H      9   7   5     2.022012438877   145.37732655   145.27378867
 H      9   7   5     2.022003821942    89.16959386   270.84373780
 H     10   9   7     2.022011034019   145.14812966   144.76011293
 H     43   9   7     1.407054490338   143.67473627   300.54055363
 H     40   7   5     1.407054180741   145.51897278   298.58473549
 H     11   7   5     2.022004746928   145.69948102   144.51454586
 H     12   7   5     2.021998408161   109.98972403   211.05044891
 H     13   8   6     2.021998416221   109.98975812    90.79100389
 H     14   6   3     2.021998395401   109.98975813   148.94952875
 H     15   3   1     2.021997552914   100.46116420   182.87308405
 H     16   1   2     2.021998517853   106.99377718   240.87773470
 H     17   2   1     2.021998403677   109.17096219   209.14698709
 H     18   3   1     2.022009010200   109.14081204   209.46733766
 H     19   5   1     2.022009881296   109.14088142   150.53266271
 H     20   4   2     2.022008998109   109.14085337   120.92648835
 H     21   1   2     2.022009956908   106.41034517    92.35939566
 H     22   1   2     2.022009978156   106.41041639   291.94871448
 H     23   4   2     2.022009889114   109.14085331   258.30749265
 H     26  16   1     2.022023134533   109.46621820   177.47400829
 H     31   3   1     1.480345878712   143.60830346    31.99437319
 H     34   4   2     1.488540098560   142.83583396   341.07939124
 H     27  17   2     2.022015083500   109.46009779    59.54970990

---------------------
BASIS SET INFORMATION
---------------------
There are 3 groups of distinct atoms

 Group   1 Type C   : 10s5p1d contracted to 6s2p1d pattern {511111/41/1}
 Group   2 Type N   : 10s5p1d contracted to 6s2p1d pattern {511111/41/1}
 Group   3 Type H   : 6s1p contracted to 4s1p pattern {3111/1}

Atom   0C    basis set group =>   1
Atom   1C    basis set group =>   1
Atom   2C    basis set group =>   1
Atom   3C    basis set group =>   1
Atom   4C    basis set group =>   1
Atom   5C    basis set group =>   1
Atom   6C    basis set group =>   1
Atom   7C    basis set group =>   1
Atom   8C    basis set group =>   1
Atom   9C    basis set group =>   1
Atom  10C    basis set group =>   1
Atom  11C    basis set group =>   1
Atom  12C    basis set group =>   1
Atom  13C    basis set group =>   1
Atom  14C    basis set group =>   1
Atom  15C    basis set group =>   1
Atom  16C    basis set group =>   1
Atom  17C    basis set group =>   1
Atom  18C    basis set group =>   1
Atom  19C    basis set group =>   1
Atom  20C    basis set group =>   1
Atom  21C    basis set group =>   1
Atom  22C    basis set group =>   1
Atom  23C    basis set group =>   1
Atom  24C    basis set group =>   1
Atom  25C    basis set group =>   1
Atom  26C    basis set group =>   1
Atom  27N    basis set group =>   2
Atom  28H    basis set group =>   3
Atom  29H    basis set group =>   3
Atom  30H    basis set group =>   3
Atom  31H    basis set group =>   3
Atom  32H    basis set group =>   3
Atom  33H    basis set group =>   3
Atom  34H    basis set group =>   3
Atom  35H    basis set group =>   3
Atom  36H    basis set group =>   3
Atom  37H    basis set group =>   3
Atom  38H    basis set group =>   3
Atom  39H    basis set group =>   3
Atom  40H    basis set group =>   3
Atom  41H    basis set group =>   3
Atom  42H    basis set group =>   3
Atom  43H    basis set group =>   3
Atom  44H    basis set group =>   3
Atom  45H    basis set group =>   3
Atom  46H    basis set group =>   3
Atom  47H    basis set group =>   3
Atom  48H    basis set group =>   3
Atom  49H    basis set group =>   3
Atom  50H    basis set group =>   3
Atom  51H    basis set group =>   3
Atom  52H    basis set group =>   3
Atom  53H    basis set group =>   3
Atom  54H    basis set group =>   3
Atom  55H    basis set group =>   3
Atom  56H    basis set group =>   3
Atom  57H    basis set group =>   3
Atom  58H    basis set group =>   3
Atom  59H    basis set group =>   3
Atom  60H    basis set group =>   3
Atom  61H    basis set group =>   3
Atom  62H    basis set group =>   3
Atom  63H    basis set group =>   3
---------------------------------
AUXILIARY/J BASIS SET INFORMATION
---------------------------------
There are 3 groups of distinct atoms

 Group   1 Type C   : 17s13p12d2f contracted to 17s13p12d2f pattern {11111111111111111/1111111111111/111111111111/11}
 Group   2 Type N   : 17s13p12d2f contracted to 17s13p12d2f pattern {11111111111111111/1111111111111/111111111111/11}
 Group   3 Type H   : 15s6p1d contracted to 15s6p1d pattern {111111111111111/111111/1}

Atom   0C    basis set group =>   1
Atom   1C    basis set group =>   1
Atom   2C    basis set group =>   1
Atom   3C    basis set group =>   1
Atom   4C    basis set group =>   1
Atom   5C    basis set group =>   1
Atom   6C    basis set group =>   1
Atom   7C    basis set group =>   1
Atom   8C    basis set group =>   1
Atom   9C    basis set group =>   1
Atom  10C    basis set group =>   1
Atom  11C    basis set group =>   1
Atom  12C    basis set group =>   1
Atom  13C    basis set group =>   1
Atom  14C    basis set group =>   1
Atom  15C    basis set group =>   1
Atom  16C    basis set group =>   1
Atom  17C    basis set group =>   1
Atom  18C    basis set group =>   1
Atom  19C    basis set group =>   1
Atom  20C    basis set group =>   1
Atom  21C    basis set group =>   1
Atom  22C    basis set group =>   1
Atom  23C    basis set group =>   1
Atom  24C    basis set group =>   1
Atom  25C    basis set group =>   1
Atom  26C    basis set group =>   1
Atom  27N    basis set group =>   2
Atom  28H    basis set group =>   3
Atom  29H    basis set group =>   3
Atom  30H    basis set group =>   3
Atom  31H    basis set group =>   3
Atom  32H    basis set group =>   3
Atom  33H    basis set group =>   3
Atom  34H    basis set group =>   3
Atom  35H    basis set group =>   3
Atom  36H    basis set group =>   3
Atom  37H    basis set group =>   3
Atom  38H    basis set group =>   3
Atom  39H    basis set group =>   3
Atom  40H    basis set group =>   3
Atom  41H    basis set group =>   3
Atom  42H    basis set group =>   3
Atom  43H    basis set group =>   3
Atom  44H    basis set group =>   3
Atom  45H    basis set group =>   3
Atom  46H    basis set group =>   3
Atom  47H    basis set group =>   3
Atom  48H    basis set group =>   3
Atom  49H    basis set group =>   3
Atom  50H    basis set group =>   3
Atom  51H    basis set group =>   3
Atom  52H    basis set group =>   3
Atom  53H    basis set group =>   3
Atom  54H    basis set group =>   3
Atom  55H    basis set group =>   3
Atom  56H    basis set group =>   3
Atom  57H    basis set group =>   3
Atom  58H    basis set group =>   3
Atom  59H    basis set group =>   3
Atom  60H    basis set group =>   3
Atom  61H    basis set group =>   3
Atom  62H    basis set group =>   3
Atom  63H    basis set group =>   3
---------------------------------
AUXILIARY/C BASIS SET INFORMATION
---------------------------------
There are 3 groups of distinct atoms

 Group   1 Type C   : 17s13p12d2f contracted to 17s13p12d2f pattern {11111111111111111/1111111111111/111111111111/11}
 Group   2 Type N   : 17s13p12d2f contracted to 17s13p12d2f pattern {11111111111111111/1111111111111/111111111111/11}
 Group   3 Type H   : 15s6p1d contracted to 15s6p1d pattern {111111111111111/111111/1}

Atom   0C    basis set group =>   1
Atom   1C    basis set group =>   1
Atom   2C    basis set group =>   1
Atom   3C    basis set group =>   1
Atom   4C    basis set group =>   1
Atom   5C    basis set group =>   1
Atom   6C    basis set group =>   1
Atom   7C    basis set group =>   1
Atom   8C    basis set group =>   1
Atom   9C    basis set group =>   1
Atom  10C    basis set group =>   1
Atom  11C    basis set group =>   1
Atom  12C    basis set group =>   1
Atom  13C    basis set group =>   1
Atom  14C    basis set group =>   1
Atom  15C    basis set group =>   1
Atom  16C    basis set group =>   1
Atom  17C    basis set group =>   1
Atom  18C    basis set group =>   1
Atom  19C    basis set group =>   1
Atom  20C    basis set group =>   1
Atom  21C    basis set group =>   1
Atom  22C    basis set group =>   1
Atom  23C    basis set group =>   1
Atom  24C    basis set group =>   1
Atom  25C    basis set group =>   1
Atom  26C    basis set group =>   1
Atom  27N    basis set group =>   2
Atom  28H    basis set group =>   3
Atom  29H    basis set group =>   3
Atom  30H    basis set group =>   3
Atom  31H    basis set group =>   3
Atom  32H    basis set group =>   3
Atom  33H    basis set group =>   3
Atom  34H    basis set group =>   3
Atom  35H    basis set group =>   3
Atom  36H    basis set group =>   3
Atom  37H    basis set group =>   3
Atom  38H    basis set group =>   3
Atom  39H    basis set group =>   3
Atom  40H    basis set group =>   3
Atom  41H    basis set group =>   3
Atom  42H    basis set group =>   3
Atom  43H    basis set group =>   3
Atom  44H    basis set group =>   3
Atom  45H    basis set group =>   3
Atom  46H    basis set group =>   3
Atom  47H    basis set group =>   3
Atom  48H    basis set group =>   3
Atom  49H    basis set group =>   3
Atom  50H    basis set group =>   3
Atom  51H    basis set group =>   3
Atom  52H    basis set group =>   3
Atom  53H    basis set group =>   3
Atom  54H    basis set group =>   3
Atom  55H    basis set group =>   3
Atom  56H    basis set group =>   3
Atom  57H    basis set group =>   3
Atom  58H    basis set group =>   3
Atom  59H    basis set group =>   3
Atom  60H    basis set group =>   3
Atom  61H    basis set group =>   3
Atom  62H    basis set group =>   3
Atom  63H    basis set group =>   3
----------------------------------
AUXILIARY/JK BASIS SET INFORMATION
----------------------------------
There are 3 groups of distinct atoms

 Group   1 Type C   : 17s13p12d2f contracted to 17s13p12d2f pattern {11111111111111111/1111111111111/111111111111/11}
 Group   2 Type N   : 17s13p12d2f contracted to 17s13p12d2f pattern {11111111111111111/1111111111111/111111111111/11}
 Group   3 Type H   : 15s6p1d contracted to 15s6p1d pattern {111111111111111/111111/1}

Atom   0C    basis set group =>   1
Atom   1C    basis set group =>   1
Atom   2C    basis set group =>   1
Atom   3C    basis set group =>   1
Atom   4C    basis set group =>   1
Atom   5C    basis set group =>   1
Atom   6C    basis set group =>   1
Atom   7C    basis set group =>   1
Atom   8C    basis set group =>   1
Atom   9C    basis set group =>   1
Atom  10C    basis set group =>   1
Atom  11C    basis set group =>   1
Atom  12C    basis set group =>   1
Atom  13C    basis set group =>   1
Atom  14C    basis set group =>   1
Atom  15C    basis set group =>   1
Atom  16C    basis set group =>   1
Atom  17C    basis set group =>   1
Atom  18C    basis set group =>   1
Atom  19C    basis set group =>   1
Atom  20C    basis set group =>   1
Atom  21C    basis set group =>   1
Atom  22C    basis set group =>   1
Atom  23C    basis set group =>   1
Atom  24C    basis set group =>   1
Atom  25C    basis set group =>   1
Atom  26C    basis set group =>   1
Atom  27N    basis set group =>   2
Atom  28H    basis set group =>   3
Atom  29H    basis set group =>   3
Atom  30H    basis set group =>   3
Atom  31H    basis set group =>   3
Atom  32H    basis set group =>   3
Atom  33H    basis set group =>   3
Atom  34H    basis set group =>   3
Atom  35H    basis set group =>   3
Atom  36H    basis set group =>   3
Atom  37H    basis set group =>   3
Atom  38H    basis set group =>   3
Atom  39H    basis set group =>   3
Atom  40H    basis set group =>   3
Atom  41H    basis set group =>   3
Atom  42H    basis set group =>   3
Atom  43H    basis set group =>   3
Atom  44H    basis set group =>   3
Atom  45H    basis set group =>   3
Atom  46H    basis set group =>   3
Atom  47H    basis set group =>   3
Atom  48H    basis set group =>   3
Atom  49H    basis set group =>   3
Atom  50H    basis set group =>   3
Atom  51H    basis set group =>   3
Atom  52H    basis set group =>   3
Atom  53H    basis set group =>   3
Atom  54H    basis set group =>   3
Atom  55H    basis set group =>   3
Atom  56H    basis set group =>   3
Atom  57H    basis set group =>   3
Atom  58H    basis set group =>   3
Atom  59H    basis set group =>   3
Atom  60H    basis set group =>   3
Atom  61H    basis set group =>   3
Atom  62H    basis set group =>   3
Atom  63H    basis set group =>   3


           ************************************************************
           *        Program running with 72 parallel MPI-processes    *
           *              working on a shared directory               *
           ************************************************************
------------------------------------------------------------------------------
                           ORCA GTO INTEGRAL CALCULATION
                           -- RI-GTO INTEGRALS CHOSEN --
------------------------------------------------------------------------------

                         BASIS SET STATISTICS AND STARTUP INFO

Gaussian basis set:
 # of primitive gaussian shells          ...  700
 # of primitive gaussian functions       ... 1164
 # of contracted shells                  ...  432
 # of contracted basis functions         ...  728
 Highest angular momentum                ...    2
 Maximum contraction depth               ...    5
Auxiliary gaussian basis set:
 # of primitive gaussian shells          ... 2024
 # of primitive gaussian functions       ... 5008
 # of contracted shells                  ... 2024
 # of contracted aux-basis functions     ... 5008
 Highest angular momentum                ...    3
 Maximum contraction depth               ...    1
Ratio of auxiliary to basis functions    ...  6.88
Integral package used                  ... LIBINT
 One Electron integrals                  ... done
 Ordering auxiliary basis shells         ... done
 Integral threshhold             Thresh  ...  1.000e-10
 Primitive cut-off               TCut    ...  1.000e-11
 Pre-screening matrix                    ... done
 Shell pair data                         ... 
 Ordering of the shell pairs             ... done (   0.015 sec) 66491 of 93528 pairs
 Determination of significant pairs      ... done (   0.000 sec)
 Creation of shell pair data             ... done (   0.010 sec)
 Storage of shell pair data              ... done (   0.063 sec)
 Shell pair data done in (   0.089 sec)
 Computing two index integrals           ... done
 Cholesky decomposition of the V-matrix  ... done


Timings:
 Total evaluation time                   ...   4.612 sec (  0.077 min)
 One electron matrix time                ...   0.735 sec (  0.012 min) = 15.9%
 Schwartz matrix evaluation time         ...   0.375 sec (  0.006 min) =  8.1%
 Two index repulsion integral time       ...   1.023 sec (  0.017 min) = 22.2%
 Cholesky decomposition of V             ...   2.368 sec (  0.039 min) = 51.3%
 Three index repulsion integral time     ...   0.000 sec (  0.000 min) =  0.0%



           ************************************************************
           *        Program running with 72 parallel MPI-processes    *
           *              working on a shared directory               *
           ************************************************************
-------------------------------------------------------------------------------
                                 ORCA SCF
-------------------------------------------------------------------------------

------------
SCF SETTINGS
------------
Hamiltonian:
 Density Functional     Method          .... DFT(GTOs)
 Exchange Functional    Exchange        .... PBE
   PBE kappa parameter   XKappa         ....  0.804000
   PBE mue parameter    XMuePBE         ....  0.219520
 Correlation Functional Correlation     .... PBE
   PBE beta parameter  CBetaPBE         ....  0.066725
 LDA part of GGA corr.  LDAOpt          .... PW91-LDA
 Gradients option       PostSCFGGA      .... off
   Density functional embedding theory  .... OFF
   NL short-range parameter             ....  6.400000
 RI-approximation to the Coulomb term is turned on
   Number of auxiliary basis functions  .... 5008
   RIJ-COSX (HFX calculated with COS-X)).... on


General Settings:
 Integral files         IntName         .... zfs
 Hartree-Fock type      HFTyp           .... UHF
 Total Charge           Charge          ....   -1
 Multiplicity           Mult            ....    3
 Number of Electrons    NEL             ....  206
 Basis Dimension        Dim             ....  728
 Nuclear Repulsion      ENuc            ....   3308.0184381789 Eh

Convergence Acceleration:
 DIIS                   CNVDIIS         .... on
   Start iteration      DIISMaxIt       ....    12
   Startup error        DIISStart       ....  0.200000
   # of expansion vecs  DIISMaxEq       ....     5
   Bias factor          DIISBfac        ....   1.050
   Max. coefficient     DIISMaxC        ....  10.000
 Newton-Raphson         CNVNR           .... off
 SOSCF                  CNVSOSCF        .... off
 Level Shifting         CNVShift        .... on
   Level shift para.    LevelShift      ....    0.2500
   Turn off err/grad.   ShiftErr        ....    0.0010
 Zerner damping         CNVZerner       .... off
 Static damping         CNVDamp         .... on
   Fraction old density DampFac         ....    0.7000
   Max. Damping (<1)    DampMax         ....    0.9800
   Min. Damping (>=0)   DampMin         ....    0.0000
   Turn off err/grad.   DampErr         ....    0.1000
 Fernandez-Rico         CNVRico         .... off

SCF Procedure:
 Maximum # iterations   MaxIter         ....   125
 SCF integral mode      SCFMode         .... Direct
   Integral package                     .... LIBINT
 Reset frequency        DirectResetFreq ....    20
 Integral Threshold     Thresh          ....  1.000e-10 Eh
 Primitive CutOff       TCut            ....  1.000e-11 Eh

Convergence Tolerance:
 Convergence Check Mode ConvCheckMode   .... Total+1el-Energy
 Convergence forced     ConvForced      .... 0
 Energy Change          TolE            ....  1.000e-06 Eh
 1-El. energy change                    ....  1.000e-03 Eh
 DIIS Error             TolErr          ....  1.000e-06


Diagonalization of the overlap matrix:
Smallest eigenvalue                        ... 1.744e-04
Time for diagonalization                   ...    0.145 sec
Threshold for overlap eigenvalues          ... 1.000e-08
Number of eigenvalues below threshold      ... 0
Time for construction of square roots      ...    0.304 sec
Total time needed                          ...    0.452 sec

-------------------
DFT GRID GENERATION
-------------------

General Integration Accuracy     IntAcc      ...  4.340
Radial Grid Type                 RadialGrid  ... Gauss-Chebyshev
Angular Grid (max. acc.)         AngularGrid ... Lebedev-110
Angular grid pruning method      GridPruning ... 3 (G Style)
Weight generation scheme         WeightScheme... Becke
Basis function cutoff            BFCut       ...    1.0000e-10
Integration weight cutoff        WCut        ...    1.0000e-14
Grids for H and He will be reduced by one unit

# of grid points (after initial pruning)     ...  74998 (   0.1 sec)
# of grid points (after weights+screening)   ...  62522 (   0.1 sec)
nearest neighbour list constructed           ...    0.0 sec
Grid point re-assignment to atoms done       ...    0.0 sec
Grid point division into batches done        ...    0.0 sec
Reduced shell lists constructed in    0.1 sec

Total number of grid points                  ...    62522
Total number of batches                      ...     1006
Average number of points per batch           ...       62
Average number of grid points per atom       ...      977
Average number of shells per batch           ...   225.40 (52.18%)
Average number of basis functions per batch  ...   452.07 (62.10%)
Average number of large shells per batch     ...   168.73 (74.86%)
Average number of large basis fcns per batch ...   335.80 (74.28%)
Maximum spatial batch extension              ...   2.75,  2.26,  2.37 au
Average spatial batch extension              ...   0.03,  0.02,  0.02 au

Time for grid setup =    0.420 sec

------------------------------
INITIAL GUESS: MODEL POTENTIAL
------------------------------
Loading Hartree-Fock densities                     ... done
Calculating cut-offs                               ... done
Setting up the integral package                    ... done
Initializing the effective Hamiltonian             ... done
Starting the Coulomb interaction                   ... done (   0.2 sec)
Reading the grid                                   ... done
Mapping shells                                     ... done
Starting the XC term evaluation                    ... done (   0.2 sec)
  promolecular density results
     # of electrons  =    204.965957124
     EX              =   -156.125220503
     EC              =     -7.166458936
     EX+EC           =   -163.291679439
Transforming the Hamiltonian                       ... done (   0.1 sec)
Diagonalizing the Hamiltonian                      ... done (   0.1 sec)
Back transforming the eigenvectors                 ... done (   0.1 sec)
Now organizing SCF variables                       ... done
                      ------------------
                      INITIAL GUESS DONE (   1.3 sec)
                      ------------------
--------------------
COSX GRID GENERATION
--------------------

General Integration Accuracy     IntAcc      ...  3.340
Radial Grid Type                 RadialGrid  ... Gauss-Chebyshev
Angular Grid (max. acc.)         AngularGrid ... Lebedev-50
Angular grid pruning method      GridPruning ... 3 (G Style)
Weight generation scheme         WeightScheme... Becke
Basis function cutoff            BFCut       ...    1.0000e-10
Integration weight cutoff        WCut        ...    1.0000e-14
Grids for H and He will be reduced by one unit

# of grid points (after initial pruning)     ...  27746 (   0.0 sec)
# of grid points (after weights+screening)   ...  23446 (   0.0 sec)
nearest neighbour list constructed           ...    0.0 sec
Grid point re-assignment to atoms done       ...    0.0 sec
Grid point division into batches done        ...    0.0 sec
Reduced shell lists constructed in    0.0 sec

Total number of grid points                  ...    23446
Total number of batches                      ...      393
Average number of points per batch           ...       59
Average number of grid points per atom       ...      366
Average number of shells per batch           ...   219.43 (50.79%)
Average number of basis functions per batch  ...   438.86 (60.28%)
Average number of large shells per batch     ...   164.14 (74.80%)
Average number of large basis fcns per batch ...   328.14 (74.77%)
Maximum spatial batch extension              ...   2.73,  3.09,  2.80 au
Average spatial batch extension              ...   0.03,  0.04,  0.04 au

Overlap Fitting                  UseSFitting ... on
Constructing numerical overlap ... done (      0.0 sec)
Inverting numerical overlap    ... done (      0.0 sec)
Obtaining analytic overlap     ... done (      0.0 sec)
Final contraction and storage  ... done (      0.1 sec)


General Integration Accuracy     IntAcc      ...  3.670
Radial Grid Type                 RadialGrid  ... Gauss-Chebyshev
Angular Grid (max. acc.)         AngularGrid ... Lebedev-50
Angular grid pruning method      GridPruning ... 3 (G Style)
Weight generation scheme         WeightScheme... Becke
Basis function cutoff            BFCut       ...    1.0000e-10
Integration weight cutoff        WCut        ...    1.0000e-14
Grids for H and He will be reduced by one unit

# of grid points (after initial pruning)     ...  35464 (   0.0 sec)
# of grid points (after weights+screening)   ...  29888 (   0.0 sec)
nearest neighbour list constructed           ...    0.0 sec
Grid point re-assignment to atoms done       ...    0.0 sec
Grid point division into batches done        ...    0.0 sec
Reduced shell lists constructed in    0.0 sec

Total number of grid points                  ...    29888
Total number of batches                      ...      501
Average number of points per batch           ...       59
Average number of grid points per atom       ...      467
Average number of shells per batch           ...   223.12 (51.65%)
Average number of basis functions per batch  ...   447.12 (61.42%)
Average number of large shells per batch     ...   168.12 (75.35%)
Average number of large basis fcns per batch ...   337.12 (75.40%)
Maximum spatial batch extension              ...   2.75,  2.75,  2.79 au
Average spatial batch extension              ...   0.03,  0.03,  0.03 au

Overlap Fitting                  UseSFitting ... on
Constructing numerical overlap ... done (      0.0 sec)
Inverting numerical overlap    ... done (      0.0 sec)
Obtaining analytic overlap     ... done (      0.0 sec)
Final contraction and storage  ... done (      0.1 sec)


General Integration Accuracy     IntAcc      ...  4.010
Radial Grid Type                 RadialGrid  ... Gauss-Chebyshev
Angular Grid (max. acc.)         AngularGrid ... Lebedev-110
Angular grid pruning method      GridPruning ... 3 (G Style)
Weight generation scheme         WeightScheme... Becke
Basis function cutoff            BFCut       ...    1.0000e-10
Integration weight cutoff        WCut        ...    1.0000e-14
Grids for H and He will be reduced by one unit

# of grid points (after initial pruning)     ...  65152 (   0.0 sec)
# of grid points (after weights+screening)   ...  54601 (   0.1 sec)
nearest neighbour list constructed           ...    0.0 sec
Grid point re-assignment to atoms done       ...    0.0 sec
Grid point division into batches done        ...    0.1 sec
Reduced shell lists constructed in    0.1 sec

Total number of grid points                  ...    54601
Total number of batches                      ...      884
Average number of points per batch           ...       61
Average number of grid points per atom       ...      853
Average number of shells per batch           ...   225.64 (52.23%)
Average number of basis functions per batch  ...   452.36 (62.14%)
Average number of large shells per batch     ...   168.50 (74.68%)
Average number of large basis fcns per batch ...   334.79 (74.01%)
Maximum spatial batch extension              ...   2.49,  2.15,  2.33 au
Average spatial batch extension              ...   0.03,  0.03,  0.03 au

Overlap Fitting                  UseSFitting ... on
Constructing numerical overlap ... done (      0.1 sec)
Inverting numerical overlap    ... done (      0.0 sec)
Obtaining analytic overlap     ... done (      0.0 sec)
Final contraction and storage  ... done (      0.1 sec)

Time for X-Grid setup             =    1.291 sec
--------------
SCF ITERATIONS
--------------
ITER       Energy         Delta-E        Max-DP      RMS-DP      [F,P]     Damp
               ***  Starting incremental Fock matrix formation  ***
  0  -1102.3544708456   0.000000000000 7.79323940  0.02041621  0.1512603 0.7000
  1  -1102.7797207632  -0.425249917587 4.87862857  0.01272831  0.0656943 0.7000
                               ***Turning on DIIS***
  2  -1102.8698010752  -0.090080312014 0.76369664  0.00358151  0.0352238 0.0000
  3  -1103.1232429479  -0.253441872685 4.48476689  0.01132371  0.0323590 0.0000
  4  -1103.1564696022  -0.033226654322 1.44759246  0.00364968  0.0198656 0.0000
  5  -1103.1658245472  -0.009354945054 0.64376995  0.00160503  0.0058028 0.0000
  6  -1103.1671660279  -0.001341480634 0.43323153  0.00108141  0.0014147 0.0000
  7  -1103.1673729244  -0.000206896567 0.26066462  0.00064067  0.0023961 0.0000
  8  -1103.1674779177  -0.000104993259 0.54090557  0.00132115  0.0005478 0.0000
  9  -1103.1675448467  -0.000066929026 0.09734167  0.00028950  0.0008084 0.0000
 10  -1103.1675513467  -0.000006499955 0.08497813  0.00022583  0.0005282 0.0000
 11  -1103.1675561024  -0.000004755664 0.02521496  0.00006687  0.0003635 0.0000
 12  -1103.1675580560  -0.000001953623 0.00746240  0.00001736  0.0000658 0.0000
 13  -1103.1675579547   0.000000101290 0.00631696  0.00001121  0.0000836 0.0000
                 **** Energy Check signals convergence ****

               *****************************************************
               *                     SUCCESS                       *
               *           SCF CONVERGED AFTER  14 CYCLES          *
               *****************************************************

Setting up the final grid:

General Integration Accuracy     IntAcc      ...  4.670
Radial Grid Type                 RadialGrid  ... Gauss-Chebyshev
Angular Grid (max. acc.)         AngularGrid ... Lebedev-302
Angular grid pruning method      GridPruning ... 3 (G Style)
Weight generation scheme         WeightScheme... Becke
Basis function cutoff            BFCut       ...    1.0000e-10
Integration weight cutoff        WCut        ...    1.0000e-14
Grids for H and He will be reduced by one unit

# of grid points (after initial pruning)     ... 296120 (   0.0 sec)
# of grid points (after weights+screening)   ... 239141 (   0.2 sec)
nearest neighbour list constructed           ...    0.0 sec
Grid point re-assignment to atoms done       ...    0.1 sec
Grid point division into batches done        ...    0.8 sec
Reduced shell lists constructed in    0.9 sec

Total number of grid points                  ...   239141
Total number of batches                      ...     3773
Average number of points per batch           ...       63
Average number of grid points per atom       ...     3737
Average number of shells per batch           ...   226.85 (52.51%)
Average number of basis functions per batch  ...   456.15 (62.66%)
Average number of large shells per batch     ...   168.04 (74.07%)
Average number of large basis fcns per batch ...   332.41 (72.87%)
Maximum spatial batch extension              ...   1.79,  1.69,  1.81 au
Average spatial batch extension              ...   0.02,  0.02,  0.02 au

Final grid set up in    1.3 sec
Final integration                            ... done (   0.9 sec)
Change in XC energy                          ...    -0.000478688
Integrated number of electrons               ...   206.000863755
Previous integrated no of electrons          ...   205.996422254

----------------
TOTAL SCF ENERGY
----------------

Total Energy       :        -1103.16803677 Eh          -30018.72840 eV

Components:
Nuclear Repulsion  :         3308.01843818 Eh           90015.75802 eV
Electronic Energy  :        -4411.18647495 Eh         -120034.48642 eV
One Electron Energy:        -8103.22189288 Eh         -220499.87770 eV
Two Electron Energy:         3692.03541793 Eh          100465.39128 eV

Virial components:
Potential Energy   :        -2203.46244791 Eh          -59959.26148 eV
Kinetic Energy     :         1100.29441113 Eh           29940.53307 eV
Virial Ratio       :            2.00261169


DFT components:
N(Alpha)           :      104.000489855300 electrons
N(Beta)            :      102.000373899664 electrons
N(Total)           :      206.000863754964 electrons
E(X)               :     -159.757889659588 Eh       
E(C)               :       -7.076894169373 Eh       
E(XC)              :     -166.834783828961 Eh       
DFET-embed. en.    :        0.000000000000 Eh       

---------------
SCF CONVERGENCE
---------------

  Last Energy change         ...   -1.3149e-07  Tolerance :   1.0000e-06
  Last MAX-Density change    ...    4.6661e-04  Tolerance :   1.0000e-05
  Last RMS-Density change    ...    1.5825e-06  Tolerance :   1.0000e-06
  Last DIIS Error            ...    3.0485e-05  Tolerance :   1.0000e-06

             **** THE GBW FILE WAS UPDATED (zfs.gbw) ****
             **** DENSITY FILE WAS UPDATED (zfs.scfp) ****
             **** ENERGY FILE WAS UPDATED (zfs.en.tmp) ****
----------------------
UHF SPIN CONTAMINATION
----------------------

Warning: in a DFT calculation there is little theoretical justification to 
         calculate <S**2> as in Hartree-Fock theory. We will do it anyways
         but you should keep in mind that the values have only limited relevance

Expectation value of <S**2>     :     2.011142
Ideal value S*(S+1) for S=1.0   :     2.000000
Deviation                       :     0.011142

             **** THE GBW FILE WAS UPDATED (zfs.gbw) ****
             **** DENSITY FILE WAS UPDATED (zfs.scfp) ****
----------------
ORBITAL ENERGIES
----------------
                 SPIN UP ORBITALS
  NO   OCC          E(Eh)            E(eV) 
   0   1.0000     -13.855725      -377.0335 
   1   1.0000      -9.801481      -266.7119 
   2   1.0000      -9.801138      -266.7025 
   3   1.0000      -9.801060      -266.7004 
   4   1.0000      -9.762899      -265.6620 
   5   1.0000      -9.762693      -265.6564 
   6   1.0000      -9.762673      -265.6558 
   7   1.0000      -9.762651      -265.6552 
   8   1.0000      -9.762639      -265.6549 
   9   1.0000      -9.762520      -265.6517 
  10   1.0000      -9.755686      -265.4657 
  11   1.0000      -9.755546      -265.4619 
  12   1.0000      -9.755383      -265.4575 
  13   1.0000      -9.749133      -265.2874 
  14   1.0000      -9.749120      -265.2870 
  15   1.0000      -9.748815      -265.2787 
  16   1.0000      -9.748644      -265.2741 
  17   1.0000      -9.748348      -265.2660 
  18   1.0000      -9.747892      -265.2536 
  19   1.0000      -9.739725      -265.0314 
  20   1.0000      -9.739533      -265.0262 
  21   1.0000      -9.739436      -265.0235 
  22   1.0000      -9.735674      -264.9211 
  23   1.0000      -9.735488      -264.9161 
  24   1.0000      -9.735243      -264.9094 
  25   1.0000      -9.734640      -264.8930 
  26   1.0000      -9.734325      -264.8844 
  27   1.0000      -9.734105      -264.8785 
  28   1.0000      -0.729695       -19.8560 
  29   1.0000      -0.667411       -18.1612 
  30   1.0000      -0.652354       -17.7515 
  31   1.0000      -0.652238       -17.7483 
  32   1.0000      -0.609347       -16.5812 
  33   1.0000      -0.598267       -16.2797 
  34   1.0000      -0.597955       -16.2712 
  35   1.0000      -0.582456       -15.8494 
  36   1.0000      -0.582316       -15.8456 
  37   1.0000      -0.545776       -14.8513 
  38   1.0000      -0.521596       -14.1933 
  39   1.0000      -0.521502       -14.1908 
  40   1.0000      -0.518956       -14.1215 
  41   1.0000      -0.515956       -14.0399 
  42   1.0000      -0.515705       -14.0330 
  43   1.0000      -0.501957       -13.6589 
  44   1.0000      -0.444693       -12.1007 
  45   1.0000      -0.444599       -12.0982 
  46   1.0000      -0.423883       -11.5345 
  47   1.0000      -0.405304       -11.0289 
  48   1.0000      -0.405257       -11.0276 
  49   1.0000      -0.400257       -10.8915 
  50   1.0000      -0.397486       -10.8161 
  51   1.0000      -0.384009       -10.4494 
  52   1.0000      -0.383982       -10.4487 
  53   1.0000      -0.358458        -9.7541 
  54   1.0000      -0.357906        -9.7391 
  55   1.0000      -0.357891        -9.7387 
  56   1.0000      -0.346436        -9.4270 
  57   1.0000      -0.312914        -8.5148 
  58   1.0000      -0.308992        -8.4081 
  59   1.0000      -0.308869        -8.4048 
  60   1.0000      -0.301336        -8.1998 
  61   1.0000      -0.301197        -8.1960 
  62   1.0000      -0.282101        -7.6764 
  63   1.0000      -0.279303        -7.6002 
  64   1.0000      -0.279165        -7.5965 
  65   1.0000      -0.275621        -7.5000 
  66   1.0000      -0.275570        -7.4987 
  67   1.0000      -0.242657        -6.6030 
  68   1.0000      -0.242571        -6.6007 
  69   1.0000      -0.238261        -6.4834 
  70   1.0000      -0.231022        -6.2864 
  71   1.0000      -0.228432        -6.2160 
  72   1.0000      -0.226267        -6.1570 
  73   1.0000      -0.226227        -6.1560 
  74   1.0000      -0.212474        -5.7817 
  75   1.0000      -0.212362        -5.7787 
  76   1.0000      -0.210104        -5.7172 
  77   1.0000      -0.197013        -5.3610 
  78   1.0000      -0.190609        -5.1867 
  79   1.0000      -0.190589        -5.1862 
  80   1.0000      -0.179326        -4.8797 
  81   1.0000      -0.179285        -4.8786 
  82   1.0000      -0.171380        -4.6635 
  83   1.0000      -0.166769        -4.5380 
  84   1.0000      -0.166719        -4.5366 
  85   1.0000      -0.161157        -4.3853 
  86   1.0000      -0.158650        -4.3171 
  87   1.0000      -0.156257        -4.2520 
  88   1.0000      -0.156175        -4.2497 
  89   1.0000      -0.146968        -3.9992 
  90   1.0000      -0.146845        -3.9958 
  91   1.0000      -0.135098        -3.6762 
  92   1.0000      -0.119917        -3.2631 
  93   1.0000      -0.119869        -3.2618 
  94   1.0000      -0.095628        -2.6022 
  95   1.0000      -0.095551        -2.6001 
  96   1.0000      -0.092613        -2.5201 
  97   1.0000      -0.077024        -2.0959 
  98   1.0000      -0.059111        -1.6085 
  99   1.0000      -0.056820        -1.5461 
 100   1.0000      -0.056557        -1.5390 
 101   1.0000       0.002083         0.0567 
 102   1.0000       0.047386         1.2894 
 103   1.0000       0.047547         1.2938 
 104   0.0000       0.096964         2.6385 
 105   0.0000       0.113776         3.0960 
 106   0.0000       0.116252         3.1634 
 107   0.0000       0.117323         3.1925 
 108   0.0000       0.124712         3.3936 
 109   0.0000       0.125037         3.4024 
 110   0.0000       0.126578         3.4444 
 111   0.0000       0.130574         3.5531 
 112   0.0000       0.131480         3.5778 
 113   0.0000       0.140768         3.8305 
 114   0.0000       0.142947         3.8898 
 115   0.0000       0.143790         3.9127 
 116   0.0000       0.150428         4.0934 
 117   0.0000       0.151499         4.1225 
 118   0.0000       0.152981         4.1628 
 119   0.0000       0.155447         4.2299 
 120   0.0000       0.179211         4.8766 
 121   0.0000       0.180138         4.9018 
 122   0.0000       0.184048         5.0082 
 123   0.0000       0.184668         5.0251 
 124   0.0000       0.185132         5.0377 
 125   0.0000       0.185645         5.0517 
 126   0.0000       0.193472         5.2646 
 127   0.0000       0.194079         5.2812 
 128   0.0000       0.195950         5.3321 
 129   0.0000       0.228167         6.2087 
 130   0.0000       0.228356         6.2139 
 131   0.0000       0.230106         6.2615 
 132   0.0000       0.239523         6.5178 
 133   0.0000       0.246517         6.7081 
 134   0.0000       0.250014         6.8032 
 135   0.0000       0.250233         6.8092 
 136   0.0000       0.252071         6.8592 
 137   0.0000       0.252390         6.8679 
 138   0.0000       0.275134         7.4868 
 139   0.0000       0.276757         7.5309 
 140   0.0000       0.277385         7.5480 
 141   0.0000       0.283455         7.7132 
 142   0.0000       0.284257         7.7350 
 143   0.0000       0.292124         7.9491 
 144   0.0000       0.292871         7.9694 
 145   0.0000       0.293186         7.9780 
 146   0.0000       0.296470         8.0674 
 147   0.0000       0.297199         8.0872 
 148   0.0000       0.298042         8.1101 
 149   0.0000       0.299369         8.1462 
 150   0.0000       0.308356         8.3908 
 151   0.0000       0.308658         8.3990 
 152   0.0000       0.310835         8.4582 
 153   0.0000       0.312032         8.4908 
 154   0.0000       0.314177         8.5492 
 155   0.0000       0.327594         8.9143 
 156   0.0000       0.331924         9.0321 
 157   0.0000       0.332273         9.0416 
 158   0.0000       0.340913         9.2767 
 159   0.0000       0.343737         9.3536 
 160   0.0000       0.344077         9.3628 
 161   0.0000       0.354915         9.6577 
 162   0.0000       0.355650         9.6777 
 163   0.0000       0.356997         9.7144 
 164   0.0000       0.366305         9.9677 
 165   0.0000       0.372409        10.1338 
 166   0.0000       0.373161        10.1542 
 167   0.0000       0.374097        10.1797 
 168   0.0000       0.382037        10.3958 
 169   0.0000       0.382224        10.4008 
 170   0.0000       0.382796        10.4164 
 171   0.0000       0.389014        10.5856 
 172   0.0000       0.389693        10.6041 
 173   0.0000       0.390179        10.6173 
 174   0.0000       0.393124        10.6974 
 175   0.0000       0.393332        10.7031 
 176   0.0000       0.394426        10.7329 
 177   0.0000       0.397735        10.8229 
 178   0.0000       0.397805        10.8248 
 179   0.0000       0.410935        11.1821 
 180   0.0000       0.411629        11.2010 
 181   0.0000       0.413592        11.2544 
 182   0.0000       0.427390        11.6299 
 183   0.0000       0.428228        11.6527 
 184   0.0000       0.428419        11.6579 
 185   0.0000       0.428941        11.6721 
 186   0.0000       0.429219        11.6796 
 187   0.0000       0.431680        11.7466 
 188   0.0000       0.433321        11.7913 
 189   0.0000       0.433371        11.7926 
 190   0.0000       0.437057        11.8929 
 191   0.0000       0.437968        11.9177 
 192   0.0000       0.438596        11.9348 
 193   0.0000       0.451117        12.2755 
 194   0.0000       0.460748        12.5376 
 195   0.0000       0.461167        12.5490 
 196   0.0000       0.467292        12.7157 
 197   0.0000       0.470815        12.8115 
 198   0.0000       0.472187        12.8488 
 199   0.0000       0.473015        12.8714 
 200   0.0000       0.482294        13.1239 
 201   0.0000       0.483189        13.1482 
 202   0.0000       0.498720        13.5709 
 203   0.0000       0.507869        13.8198 
 204   0.0000       0.509558        13.8658 
 205   0.0000       0.510875        13.9016 
 206   0.0000       0.515323        14.0227 
 207   0.0000       0.516924        14.0662 
 208   0.0000       0.527402        14.3513 
 209   0.0000       0.534427        14.5425 
 210   0.0000       0.536079        14.5874 
 211   0.0000       0.537787        14.6339 
 212   0.0000       0.541896        14.7457 
 213   0.0000       0.546718        14.8769 
 214   0.0000       0.548378        14.9221 
 215   0.0000       0.551181        14.9984 
 216   0.0000       0.558111        15.1870 
 217   0.0000       0.558780        15.2052 
 218   0.0000       0.559201        15.2166 
 219   0.0000       0.575290        15.6544 
 220   0.0000       0.579320        15.7641 
 221   0.0000       0.581251        15.8167 
 222   0.0000       0.590110        16.0577 
 223   0.0000       0.591118        16.0851 
 224   0.0000       0.600478        16.3398 
 225   0.0000       0.603083        16.4107 
 226   0.0000       0.604896        16.4601 
 227   0.0000       0.608017        16.5450 
 228   0.0000       0.615907        16.7597 
 229   0.0000       0.618592        16.8327 
 230   0.0000       0.619287        16.8517 
 231   0.0000       0.620090        16.8735 
 232   0.0000       0.621757        16.9189 
 233   0.0000       0.623622        16.9696 
 234   0.0000       0.624634        16.9971 
 235   0.0000       0.625146        17.0111 
 236   0.0000       0.634209        17.2577 
 237   0.0000       0.644768        17.5450 
 238   0.0000       0.645071        17.5533 
 239   0.0000       0.646875        17.6024 
 240   0.0000       0.657707        17.8971 
 241   0.0000       0.658079        17.9072 
 242   0.0000       0.664364        18.0783 
 243   0.0000       0.679037        18.4775 
 244   0.0000       0.697164        18.9708 
 245   0.0000       0.698869        19.0172 
 246   0.0000       0.702620        19.1193 
 247   0.0000       0.703541        19.1443 
 248   0.0000       0.708481        19.2788 
 249   0.0000       0.713943        19.4274 
 250   0.0000       0.713995        19.4288 
 251   0.0000       0.714674        19.4473 
 252   0.0000       0.730351        19.8739 
 253   0.0000       0.735990        20.0273 
 254   0.0000       0.737487        20.0680 
 255   0.0000       0.737863        20.0783 
 256   0.0000       0.743874        20.2418 
 257   0.0000       0.746574        20.3153 
 258   0.0000       0.758701        20.6453 
 259   0.0000       0.759022        20.6540 
 260   0.0000       0.761124        20.7112 
 261   0.0000       0.761302        20.7161 
 262   0.0000       0.762123        20.7384 
 263   0.0000       0.779566        21.2131 
 264   0.0000       0.812131        22.0992 
 265   0.0000       0.828551        22.5460 
 266   0.0000       0.852806        23.2060 
 267   0.0000       0.853069        23.2132 
 268   0.0000       0.857032        23.3210 
 269   0.0000       0.857618        23.3370 
 270   0.0000       0.896174        24.3861 
 271   0.0000       0.898848        24.4589 
 272   0.0000       0.906581        24.6693 
 273   0.0000       0.907622        24.6976 
 274   0.0000       0.916310        24.9341 
 275   0.0000       0.923092        25.1186 
 276   0.0000       0.924444        25.1554 
 277   0.0000       0.942571        25.6487 
 278   0.0000       0.950700        25.8699 
 279   0.0000       0.951966        25.9043 
 280   0.0000       0.956354        26.0237 
 281   0.0000       0.957353        26.0509 
 282   0.0000       0.958992        26.0955 
 283   0.0000       0.961594        26.1663 
 284   0.0000       0.964705        26.2510 
 285   0.0000       0.965610        26.2756 
 286   0.0000       0.984538        26.7906 
 287   0.0000       1.007626        27.4189 
 288   0.0000       1.010691        27.5023 
 289   0.0000       1.011518        27.5248 
 290   0.0000       1.016137        27.6505 
 291   0.0000       1.017394        27.6847 
 292   0.0000       1.018138        27.7049 
 293   0.0000       1.030141        28.0316 
 294   0.0000       1.030508        28.0416 
 295   0.0000       1.039534        28.2872 
 296   0.0000       1.040678        28.3183 
 297   0.0000       1.041645        28.3446 
 298   0.0000       1.046376        28.4734 
 299   0.0000       1.046891        28.4873 
 300   0.0000       1.054632        28.6980 
 301   0.0000       1.060360        28.8539 
 302   0.0000       1.060682        28.8626 
 303   0.0000       1.061471        28.8841 
 304   0.0000       1.067029        29.0353 
 305   0.0000       1.067464        29.0472 
 306   0.0000       1.070585        29.1321 
 307   0.0000       1.088492        29.6194 
 308   0.0000       1.094946        29.7950 
 309   0.0000       1.097090        29.8533 
 310   0.0000       1.125111        30.6158 
 311   0.0000       1.131271        30.7835 
 312   0.0000       1.131494        30.7895 
 313   0.0000       1.132511        30.8172 
 314   0.0000       1.135434        30.8967 
 315   0.0000       1.136022        30.9127 
 316   0.0000       1.140306        31.0293 
 317   0.0000       1.141285        31.0559 
 318   0.0000       1.141766        31.0690 
 319   0.0000       1.146368        31.1942 
 320   0.0000       1.147824        31.2339 
 321   0.0000       1.148717        31.2582 
 322   0.0000       1.149332        31.2749 
 323   0.0000       1.153274        31.3822 
 324   0.0000       1.153638        31.3921 
 325   0.0000       1.154851        31.4251 
 326   0.0000       1.155448        31.4413 
 327   0.0000       1.160789        31.5867 
 328   0.0000       1.161104        31.5952 
 329   0.0000       1.170333        31.8464 
 330   0.0000       1.204133        32.7661 
 331   0.0000       1.205136        32.7934 
 332   0.0000       1.205455        32.8021 
 333   0.0000       1.206450        32.8292 
 334   0.0000       1.208894        32.8957 
 335   0.0000       1.209479        32.9116 
 336   0.0000       1.214329        33.0436 
 337   0.0000       1.214879        33.0585 
 338   0.0000       1.215300        33.0700 
 339   0.0000       1.216373        33.0992 
 340   0.0000       1.233533        33.5661 
 341   0.0000       1.233742        33.5718 
 342   0.0000       1.249510        34.0009 
 343   0.0000       1.270609        34.5750 
 344   0.0000       1.279431        34.8151 
 345   0.0000       1.279950        34.8292 
 346   0.0000       1.282447        34.8971 
 347   0.0000       1.290318        35.1113 
 348   0.0000       1.294142        35.2154 
 349   0.0000       1.295081        35.2410 
 350   0.0000       1.307095        35.5679 
 351   0.0000       1.308543        35.6073 
 352   0.0000       1.313520        35.7427 
 353   0.0000       1.327879        36.1334 
 354   0.0000       1.330303        36.1994 
 355   0.0000       1.331290        36.2262 
 356   0.0000       1.368276        37.2327 
 357   0.0000       1.368638        37.2425 
 358   0.0000       1.381983        37.6057 
 359   0.0000       1.384725        37.6803 
 360   0.0000       1.385510        37.7016 
 361   0.0000       1.402941        38.1760 
 362   0.0000       1.403765        38.1984 
 363   0.0000       1.405062        38.2337 
 364   0.0000       1.412043        38.4236 
 365   0.0000       1.428913        38.8827 
 366   0.0000       1.429642        38.9025 
 367   0.0000       1.437991        39.1297 
 368   0.0000       1.440517        39.1985 
 369   0.0000       1.440987        39.2112 
 370   0.0000       1.455082        39.5948 
 371   0.0000       1.455856        39.6159 
 372   0.0000       1.464250        39.8443 
 373   0.0000       1.485154        40.4131 
 374   0.0000       1.487090        40.4658 
 375   0.0000       1.487605        40.4798 
 376   0.0000       1.496297        40.7163 
 377   0.0000       1.497718        40.7550 
 378   0.0000       1.498309        40.7711 
 379   0.0000       1.505638        40.9705 
 380   0.0000       1.507014        41.0079 
 381   0.0000       1.508372        41.0449 
 382   0.0000       1.511703        41.1355 
 383   0.0000       1.517929        41.3050 
 384   0.0000       1.519098        41.3368 
 385   0.0000       1.530824        41.6558 
 386   0.0000       1.532992        41.7148 
 387   0.0000       1.533101        41.7178 
 388   0.0000       1.539554        41.8934 
 389   0.0000       1.540603        41.9219 
 390   0.0000       1.541152        41.9369 
 391   0.0000       1.553835        42.2820 
 392   0.0000       1.565017        42.5863 
 393   0.0000       1.565438        42.5977 
 394   0.0000       1.566404        42.6240 
 395   0.0000       1.571319        42.7578 
 396   0.0000       1.572182        42.7813 
 397   0.0000       1.583333        43.0847 
 398   0.0000       1.598524        43.4981 
 399   0.0000       1.599012        43.5113 
 400   0.0000       1.611806        43.8595 
 401   0.0000       1.615460        43.9589 
 402   0.0000       1.616481        43.9867 
 403   0.0000       1.621160        44.1140 
 404   0.0000       1.641944        44.6796 
 405   0.0000       1.645375        44.7729 
 406   0.0000       1.650955        44.9248 
 407   0.0000       1.651605        44.9425 
 408   0.0000       1.662349        45.2348 
 409   0.0000       1.662806        45.2473 
 410   0.0000       1.668393        45.3993 
 411   0.0000       1.668671        45.4068 
 412   0.0000       1.686056        45.8799 
 413   0.0000       1.686708        45.8977 
 414   0.0000       1.687996        45.9327 
 415   0.0000       1.688052        45.9342 
 416   0.0000       1.688338        45.9420 
 417   0.0000       1.708026        46.4777 
 418   0.0000       1.731526        47.1172 
 419   0.0000       1.731718        47.1225 
 420   0.0000       1.736052        47.2404 
 421   0.0000       1.744368        47.4667 
 422   0.0000       1.745253        47.4907 
 423   0.0000       1.750001        47.6199 
 424   0.0000       1.752426        47.6859 
 425   0.0000       1.753274        47.7090 
 426   0.0000       1.763354        47.9833 
 427   0.0000       1.763463        47.9863 
 428   0.0000       1.781077        48.4656 
 429   0.0000       1.801248        49.0145 
 430   0.0000       1.801985        49.0345 
 431   0.0000       1.806851        49.1669 
 432   0.0000       1.806980        49.1704 
 433   0.0000       1.812189        49.3122 
 434   0.0000       1.812836        49.3298 
 435   0.0000       1.819344        49.5069 
 436   0.0000       1.819835        49.5202 
 437   0.0000       1.825357        49.6705 
 438   0.0000       1.832535        49.8658 
 439   0.0000       1.832763        49.8720 
 440   0.0000       1.835573        49.9485 
 441   0.0000       1.840463        50.0815 
 442   0.0000       1.841156        50.1004 
 443   0.0000       1.851253        50.3752 
 444   0.0000       1.855837        50.4999 
 445   0.0000       1.855922        50.5022 
 446   0.0000       1.857524        50.5458 
 447   0.0000       1.858309        50.5672 
 448   0.0000       1.858843        50.5817 
 449   0.0000       1.870153        50.8895 
 450   0.0000       1.905658        51.8556 
 451   0.0000       1.906172        51.8696 
 452   0.0000       1.907292        51.9001 
 453   0.0000       1.926092        52.4116 
 454   0.0000       1.930779        52.5392 
 455   0.0000       1.933093        52.6021 
 456   0.0000       1.939626        52.7799 
 457   0.0000       1.940001        52.7901 
 458   0.0000       1.944010        52.8992 
 459   0.0000       1.944389        52.9095 
 460   0.0000       1.950921        53.0873 
 461   0.0000       1.951148        53.0934 
 462   0.0000       1.967213        53.5306 
 463   0.0000       1.969448        53.5914 
 464   0.0000       1.971312        53.6421 
 465   0.0000       1.971455        53.6460 
 466   0.0000       1.993179        54.2371 
 467   0.0000       1.997369        54.3512 
 468   0.0000       1.997515        54.3551 
 469   0.0000       2.007310        54.6217 
 470   0.0000       2.007488        54.6265 
 471   0.0000       2.015382        54.8413 
 472   0.0000       2.017286        54.8931 
 473   0.0000       2.017444        54.8974 
 474   0.0000       2.024050        55.0772 
 475   0.0000       2.032854        55.3168 
 476   0.0000       2.033073        55.3227 
 477   0.0000       2.039736        55.5040 
 478   0.0000       2.040117        55.5144 
 479   0.0000       2.043488        55.6061 
 480   0.0000       2.052980        55.8644 
 481   0.0000       2.053008        55.8652 
 482   0.0000       2.069150        56.3044 
 483   0.0000       2.081930        56.6522 
 484   0.0000       2.084770        56.7295 
 485   0.0000       2.086850        56.7861 
 486   0.0000       2.087264        56.7973 
 487   0.0000       2.105800        57.3017 
 488   0.0000       2.106110        57.3102 
 489   0.0000       2.110585        57.4319 
 490   0.0000       2.118639        57.6511 
 491   0.0000       2.118768        57.6546 
 492   0.0000       2.124635        57.8143 
 493   0.0000       2.126071        57.8533 
 494   0.0000       2.126485        57.8646 
 495   0.0000       2.151232        58.5380 
 496   0.0000       2.162996        58.8581 
 497   0.0000       2.179024        59.2943 
 498   0.0000       2.179504        59.3073 
 499   0.0000       2.193474        59.6875 
 500   0.0000       2.209460        60.1225 
 501   0.0000       2.213447        60.2310 
 502   0.0000       2.213857        60.2421 
 503   0.0000       2.224026        60.5188 
 504   0.0000       2.224906        60.5428 
 505   0.0000       2.225010        60.5456 
 506   0.0000       2.229368        60.6642 
 507   0.0000       2.229838        60.6770 
 508   0.0000       2.250467        61.2383 
 509   0.0000       2.250770        61.2466 
 510   0.0000       2.274584        61.8946 
 511   0.0000       2.275016        61.9063 
 512   0.0000       2.290746        62.3344 
 513   0.0000       2.296278        62.4849 
 514   0.0000       2.307729        62.7965 
 515   0.0000       2.308068        62.8057 
 516   0.0000       2.314367        62.9771 
 517   0.0000       2.326554        63.3088 
 518   0.0000       2.348015        63.8927 
 519   0.0000       2.348171        63.8970 
 520   0.0000       2.359008        64.1919 
 521   0.0000       2.359343        64.2010 
 522   0.0000       2.359840        64.2145 
 523   0.0000       2.395482        65.1844 
 524   0.0000       2.395711        65.1906 
 525   0.0000       2.417944        65.7956 
 526   0.0000       2.423886        65.9573 
 527   0.0000       2.423998        65.9603 
 528   0.0000       2.426646        66.0324 
 529   0.0000       2.435605        66.2762 
 530   0.0000       2.435983        66.2865 
 531   0.0000       2.446376        66.5693 
 532   0.0000       2.456788        66.8526 
 533   0.0000       2.457106        66.8613 
 534   0.0000       2.468112        67.1607 
 535   0.0000       2.468665        67.1758 
 536   0.0000       2.474215        67.3268 
 537   0.0000       2.479547        67.4719 
 538   0.0000       2.511602        68.3442 
 539   0.0000       2.511721        68.3474 
 540   0.0000       2.522443        68.6392 
 541   0.0000       2.550342        69.3983 
 542   0.0000       2.564901        69.7945 
 543   0.0000       2.565305        69.8055 
 544   0.0000       2.584320        70.3229 
 545   0.0000       2.588239        70.4296 
 546   0.0000       2.600042        70.7507 
 547   0.0000       2.600380        70.7599 
 548   0.0000       2.616897        71.2094 
 549   0.0000       2.617354        71.2218 
 550   0.0000       2.632998        71.6475 
 551   0.0000       2.633239        71.6541 
 552   0.0000       2.633591        71.6636 
 553   0.0000       2.671652        72.6993 
 554   0.0000       2.682858        73.0043 
 555   0.0000       2.694577        73.3232 
 556   0.0000       2.695008        73.3349 
 557   0.0000       2.739708        74.5513 
 558   0.0000       2.745367        74.7052 
 559   0.0000       2.747892        74.7740 
[...]
 522( 0) :     2.359840 a.u.    64.215 eV
 523( 0) :     2.395480 a.u.    65.184 eV
 524( 0) :     2.395714 a.u.    65.191 eV
 525( 0) :     2.417946 a.u.    65.796 eV
 526( 0) :     2.423887 a.u.    65.957 eV
 527( 0) :     2.424001 a.u.    65.960 eV
 528( 0) :     2.426650 a.u.    66.033 eV
 529( 0) :     2.435606 a.u.    66.276 eV
 530( 0) :     2.435984 a.u.    66.286 eV
 531( 0) :     2.446377 a.u.    66.569 eV
 532( 0) :     2.456791 a.u.    66.853 eV
 533( 0) :     2.457109 a.u.    66.861 eV
 534( 0) :     2.468115 a.u.    67.161 eV
 535( 0) :     2.468668 a.u.    67.176 eV
 536( 0) :     2.474219 a.u.    67.327 eV
 537( 0) :     2.479545 a.u.    67.472 eV
 538( 0) :     2.511603 a.u.    68.344 eV
 539( 0) :     2.511723 a.u.    68.347 eV
 540( 0) :     2.522442 a.u.    68.639 eV
 541( 0) :     2.550345 a.u.    69.398 eV
 542( 0) :     2.564901 a.u.    69.795 eV
 543( 0) :     2.565302 a.u.    69.805 eV
 544( 0) :     2.584324 a.u.    70.323 eV
 545( 0) :     2.588232 a.u.    70.429 eV
 546( 0) :     2.600043 a.u.    70.751 eV
 547( 0) :     2.600379 a.u.    70.760 eV
 548( 0) :     2.616896 a.u.    71.209 eV
 549( 0) :     2.617351 a.u.    71.222 eV
 550( 0) :     2.632999 a.u.    71.648 eV
 551( 0) :     2.633239 a.u.    71.654 eV
 552( 0) :     2.633591 a.u.    71.664 eV
 553( 0) :     2.671652 a.u.    72.699 eV
 554( 0) :     2.682859 a.u.    73.004 eV
 555( 0) :     2.694577 a.u.    73.323 eV
 556( 0) :     2.695007 a.u.    73.335 eV
 557( 0) :     2.739712 a.u.    74.551 eV
 558( 0) :     2.745369 a.u.    74.705 eV
 559( 0) :     2.747895 a.u.    74.774 eV
 560( 0) :     2.748051 a.u.    74.778 eV
 561( 0) :     2.757974 a.u.    75.048 eV
 562( 0) :     2.758163 a.u.    75.053 eV
 563( 0) :     2.768139 a.u.    75.325 eV
 564( 0) :     2.768639 a.u.    75.339 eV
 565( 0) :     2.777406 a.u.    75.577 eV
 566( 0) :     2.784948 a.u.    75.782 eV
 567( 0) :     2.785618 a.u.    75.801 eV
 568( 0) :     2.791167 a.u.    75.952 eV
 569( 0) :     2.796026 a.u.    76.084 eV
 570( 0) :     2.796405 a.u.    76.094 eV
 571( 0) :     2.798441 a.u.    76.149 eV
 572( 0) :     2.818517 a.u.    76.696 eV
 573( 0) :     2.819889 a.u.    76.733 eV
 574( 0) :     2.856973 a.u.    77.742 eV
 575( 0) :     2.859566 a.u.    77.813 eV
 576( 0) :     2.860454 a.u.    77.837 eV
 577( 0) :     2.875783 a.u.    78.254 eV
 578( 0) :     2.876010 a.u.    78.260 eV
 579( 0) :     2.910445 a.u.    79.197 eV
 580( 0) :     2.911542 a.u.    79.227 eV
 581( 0) :     2.922717 a.u.    79.531 eV
 582( 0) :     2.922864 a.u.    79.535 eV
 583( 0) :     2.924933 a.u.    79.591 eV
 584( 0) :     2.934312 a.u.    79.847 eV
 585( 0) :     2.963009 a.u.    80.628 eV
 586( 0) :     2.964132 a.u.    80.658 eV
 587( 0) :     2.975476 a.u.    80.967 eV
 588( 0) :     2.986548 a.u.    81.268 eV
 589( 0) :     2.986980 a.u.    81.280 eV
 590( 0) :     3.062848 a.u.    83.344 eV
 591( 0) :     3.063643 a.u.    83.366 eV
 592( 0) :     3.067139 a.u.    83.461 eV
 593( 0) :     3.140877 a.u.    85.468 eV
 594( 0) :     3.800416 a.u.   103.415 eV
 595( 0) :     3.805087 a.u.   103.542 eV
 596( 0) :     3.834892 a.u.   104.353 eV
 597( 0) :     3.850282 a.u.   104.771 eV
 598( 0) :     3.885656 a.u.   105.734 eV
 599( 0) :     3.885947 a.u.   105.742 eV
 600( 0) :     5.167342 a.u.   140.611 eV
 601( 0) :     5.167591 a.u.   140.617 eV
 602( 0) :     5.176389 a.u.   140.857 eV
 603( 0) :     5.182073 a.u.   141.011 eV
 604( 0) :     5.182357 a.u.   141.019 eV
 605( 0) :     5.184985 a.u.   141.091 eV
 606( 0) :     5.280436 a.u.   143.688 eV
 607( 0) :     5.280483 a.u.   143.689 eV
 608( 0) :     5.285558 a.u.   143.827 eV
 609( 0) :     5.287562 a.u.   143.882 eV
 610( 0) :     5.287626 a.u.   143.884 eV
 611( 0) :     5.289808 a.u.   143.943 eV
 612( 0) :     5.298312 a.u.   144.174 eV
 613( 0) :     5.298535 a.u.   144.180 eV
 614( 0) :     5.301139 a.u.   144.251 eV
 615( 0) :     5.319025 a.u.   144.738 eV
 616( 0) :     5.319311 a.u.   144.746 eV
 617( 0) :     5.338343 a.u.   145.264 eV
 618( 0) :     5.371447 a.u.   146.165 eV
 619( 0) :     5.372079 a.u.   146.182 eV
 620( 0) :     5.383269 a.u.   146.486 eV
 621( 0) :     5.399013 a.u.   146.915 eV
 622( 0) :     5.399563 a.u.   146.930 eV
 623( 0) :     5.402870 a.u.   147.020 eV
 624( 0) :     5.416723 a.u.   147.397 eV
 625( 0) :     5.455449 a.u.   148.450 eV
 626( 0) :     5.456055 a.u.   148.467 eV
 627( 0) :     5.456235 a.u.   148.472 eV
 628( 0) :     5.486351 a.u.   149.291 eV
 629( 0) :     5.487089 a.u.   149.311 eV
 630( 0) :     5.487384 a.u.   149.319 eV
 631( 0) :     5.506845 a.u.   149.849 eV
 632( 0) :     5.520176 a.u.   150.212 eV
 633( 0) :     5.521202 a.u.   150.240 eV
 634( 0) :     5.546034 a.u.   150.915 eV
 635( 0) :     5.546145 a.u.   150.918 eV
 636( 0) :     5.557336 a.u.   151.223 eV
 637( 0) :     5.584190 a.u.   151.954 eV
 638( 0) :     5.587208 a.u.   152.036 eV
 639( 0) :     5.587789 a.u.   152.051 eV
 640( 0) :     5.646372 a.u.   153.646 eV
 641( 0) :     5.646956 a.u.   153.661 eV
 642( 0) :     5.669325 a.u.   154.270 eV
 643( 0) :     5.729696 a.u.   155.913 eV
 644( 0) :     5.730319 a.u.   155.930 eV
 645( 0) :     5.745526 a.u.   156.344 eV
 646( 0) :     5.753306 a.u.   156.555 eV
 647( 0) :     5.758657 a.u.   156.701 eV
 648( 0) :     5.758910 a.u.   156.708 eV
 649( 0) :     5.839157 a.u.   158.892 eV
 650( 0) :     5.839250 a.u.   158.894 eV
 651( 0) :     5.894677 a.u.   160.402 eV
 652( 0) :     5.990053 a.u.   162.998 eV
 653( 0) :     5.990337 a.u.   163.005 eV
 654( 0) :     6.074611 a.u.   165.299 eV
 655( 0) :     6.075035 a.u.   165.310 eV
 656( 0) :     6.085255 a.u.   165.588 eV
 657( 0) :     6.096986 a.u.   165.907 eV
 658( 0) :     6.107004 a.u.   166.180 eV
 659( 0) :     6.107230 a.u.   166.186 eV
 660( 0) :     6.114628 a.u.   166.387 eV
 661( 0) :     6.115297 a.u.   166.406 eV
 662( 0) :     6.121942 a.u.   166.587 eV
 663( 0) :     7.460493 a.u.   203.010 eV
 664( 0) :    29.649987 a.u.   806.817 eV
 665( 0) :    29.717753 a.u.   808.661 eV
 666( 0) :    29.717954 a.u.   808.667 eV
 667( 0) :    29.782782 a.u.   810.431 eV
 668( 0) :    29.793234 a.u.   810.715 eV
 669( 0) :    29.793458 a.u.   810.721 eV
 670( 0) :    29.832357 a.u.   811.780 eV
 671( 0) :    30.010016 a.u.   816.614 eV
 672( 0) :    30.010344 a.u.   816.623 eV
 673( 0) :    30.019234 a.u.   816.865 eV
 674( 0) :    30.035448 a.u.   817.306 eV
 675( 0) :    30.041209 a.u.   817.463 eV
 676( 0) :    30.041358 a.u.   817.467 eV
 677( 0) :    30.108573 a.u.   819.296 eV
 678( 0) :    30.108608 a.u.   819.297 eV
 679( 0) :    30.148949 a.u.   820.395 eV
 680( 0) :    30.240248 a.u.   822.879 eV
 681( 0) :    30.240300 a.u.   822.880 eV
 682( 0) :    30.295785 a.u.   824.390 eV
 683( 0) :    30.295963 a.u.   824.395 eV
 684( 0) :    30.319254 a.u.   825.029 eV
 685( 0) :    30.321296 a.u.   825.084 eV
 686( 0) :    30.329344 a.u.   825.303 eV
 687( 0) :    30.329414 a.u.   825.305 eV
 688( 0) :    30.333865 a.u.   825.426 eV
 689( 0) :    30.338789 a.u.   825.560 eV
 690( 0) :    30.339026 a.u.   825.567 eV
 691( 0) :    36.673594 a.u.   997.939 eV
 692( 0) :    36.681683 a.u.   998.159 eV
 693( 0) :    36.681883 a.u.   998.165 eV
 694( 0) :    36.763952 a.u.  1000.398 eV
 695( 0) :    36.766182 a.u.  1000.459 eV
 696( 0) :    36.774724 a.u.  1000.691 eV
 697( 0) :    36.862984 a.u.  1003.093 eV
 698( 0) :    36.878844 a.u.  1003.524 eV
 699( 0) :    36.878939 a.u.  1003.527 eV
 700( 0) :    36.893360 a.u.  1003.919 eV
 701( 0) :    36.893392 a.u.  1003.920 eV
 702( 0) :    36.893519 a.u.  1003.924 eV
 703( 0) :    36.894564 a.u.  1003.952 eV
 704( 0) :    36.905574 a.u.  1004.252 eV
 705( 0) :    36.905869 a.u.  1004.260 eV
 706( 0) :    36.909039 a.u.  1004.346 eV
 707( 0) :    36.909207 a.u.  1004.351 eV
 708( 0) :    36.939158 a.u.  1005.166 eV
 709( 0) :    36.962144 a.u.  1005.791 eV
 710( 0) :    36.962169 a.u.  1005.792 eV
 711( 0) :    36.978878 a.u.  1006.246 eV
 712( 0) :    36.987468 a.u.  1006.480 eV
 713( 0) :    37.012451 a.u.  1007.160 eV
 714( 0) :    37.012883 a.u.  1007.172 eV
 715( 0) :    37.015747 a.u.  1007.250 eV
 716( 0) :    37.026585 a.u.  1007.545 eV
 717( 0) :    37.032490 a.u.  1007.705 eV
 718( 0) :    37.105320 a.u.  1009.687 eV
 719( 0) :    37.105811 a.u.  1009.700 eV
 720( 0) :    37.111738 a.u.  1009.862 eV
 721( 0) :    37.246149 a.u.  1013.519 eV
 722( 0) :    37.253684 a.u.  1013.724 eV
 723( 0) :    37.269479 a.u.  1014.154 eV
 724( 0) :    37.358310 a.u.  1016.571 eV
 725( 0) :    37.370864 a.u.  1016.913 eV
 726( 0) :    37.371259 a.u.  1016.924 eV
 727( 0) :    41.163193 a.u.  1120.107 eV
-------
TIMINGS
-------

Total SCF time: 0 days 0 hours 1 min 10 sec 

Total time                  ....      70.597 sec
Sum of individual times     ....      67.007 sec  ( 94.9%)

Fock matrix formation       ....      44.282 sec  ( 62.7%)
  Split-RI-J                ....      24.850 sec  ( 56.1% of F)
  XC integration            ....      12.627 sec  ( 28.5% of F)
    Basis function eval.    ....       0.381 sec  (  3.0% of XC)
    Density eval.           ....       0.971 sec  (  7.7% of XC)
    XC-Functional eval.     ....       0.062 sec  (  0.5% of XC)
    XC-Potential eval.      ....       1.324 sec  ( 10.5% of XC)
Diagonalization             ....       8.154 sec  ( 11.5%)
Density matrix formation    ....       0.617 sec  (  0.9%)
Population analysis         ....       4.100 sec  (  5.8%)
Initial guess               ....       0.864 sec  (  1.2%)
Orbital Transformation      ....       0.000 sec  (  0.0%)
Orbital Orthonormalization  ....       0.000 sec  (  0.0%)
DIIS solution               ....       6.020 sec  (  8.5%)
Grid generation             ....       2.970 sec  (  4.2%)

-------------------------   --------------------
FINAL SINGLE POINT ENERGY     -1103.168036774179
-------------------------   --------------------

   --->>> SOC part of D-tensor requested, so NeedSOC=true

                            ***************************************
                            *     ORCA property calculations      *
                            ***************************************

                                    ---------------------
                                    Active property flags
                                    ---------------------
   (+) Dipole Moment
   (+) D-tensor
   (+) Spin-Orbit Integrals are needed


------------------------------------------------------------------------------
                       ORCA ELECTRIC PROPERTIES CALCULATION
------------------------------------------------------------------------------

Dipole Moment Calculation                       ... on
Quadrupole Moment Calculation                   ... off
Polarizability Calculation                      ... off
GBWName                                         ... zfs.gbw
Electron density file                           ... zfs.scfp
The origin for moment calculation is the CENTER OF MASS  = (-0.000000,  0.000055 -3.167486)

-------------
DIPOLE MOMENT
-------------
                                X             Y             Z
Electronic contribution:      0.00220       0.01276       1.06694
Nuclear contribution   :     -0.00037      -0.00379      -0.32886
                        -----------------------------------------
Total Dipole Moment    :      0.00183       0.00896       0.73808
                        -----------------------------------------
Magnitude (a.u.)       :      0.73813
Magnitude (Debye)      :      1.87619



--------------------
Rotational spectrum 
--------------------
 
Rotational constants in cm-1:     0.009246     0.009141     0.009141 
Rotational constants in MHz :   277.183097   274.048600   274.045280 

 Dipole components along the rotational axes: 
x,y,z [a.u.] :     0.738070     0.009589    -0.001581 
x,y,z [Debye]:     1.876026     0.024374    -0.004018 

 


           ************************************************************
           *        Program running with 72 parallel MPI-processes    *
           *              working on a shared directory               *
           ************************************************************
------------------------------------------------------------------------------
                         ORCA SPIN-ORBIT COUPLING CALCULATION
------------------------------------------------------------------------------

GBW file                                    ... zfs.gbw
Input density                               ... zfs.scfp
Output integrals                            ... zfs
Operator type                               ... Mean-field/Effective potential
   One-Electron Terms                       ... 1
   Coulomb Contribution                     ... 2
   Exchange Contribution                    ... 3
   Correlation Contribution                 ... 0
   Maximum number of centers                ... 4
Setting up the integration grid             ... done
Evaluating density on the grid              ... (NumEl=  205.996422) done
Evaluating Coulomb term semi-analytically   ... done
One-Center Exchange (+SOO)                  ... done
Evaluating the spin-orbit operator          ... done
Total time for SOC: 68.013


           ************************************************************
           *        Program running with 72 parallel MPI-processes    *
           *              working on a shared directory               *
           ************************************************************
------------------------------------------------------------------------------
                                ORCA EPR/NMR CALCULATION
------------------------------------------------------------------------------

GBWName                      ... zfs.gbw
Electron density file        ... zfs.scfp
Spin density file            ... zfs.scfr
Spin-orbit integrals         ... zfs
Multiplicity                 ... 3
g-tensor                     ... 0
NMR chemical shifts          ... 0
D-tensor                     ... spin-spin and spin-orbit
D(SS)-algorithm              ... spin-density from UNOs
D(SOC)-algorithm             ... CP (=Coupled-perturbed)
Active orbitals for UNO spin density= 102 .. 103

Starting the spin-spin zero-field-splitting computation (UNO)...
                        ... done with spin-spin calculation

Starting the spin-orbit zero-field-splitting computation (CP)...
Transforming integrals                       ... Max(Pert)=   5.6143e-06
Warning: Perturbation too small - adjusting
Transforming integrals                       ... Max(Pert)=   6.1140e-05
Warning: Perturbation too small - adjusting
Transforming integrals                       ... Max(Pert)=   6.6581e-04
Warning: Perturbation too small - adjusting
Transforming integrals                       ... Max(Pert)=   7.2507e-03
done
    ... no HF exchange - skipping linear equations
ZFS-Tensor - using the prefactors
   -1/(4S**2) for same spin
    1/(2*S*(2*S-1)) for alpha->beta
    1/((S+1)*(2*S+1)) for beta->alpha
                        ... done with spin-orbit calculation

---------------------------
ZERO-FIELD-SPLITTING TENSOR
---------------------------

raw-matrix : 
   0.019885    -0.000141    -0.000007  
  -0.000141     0.019980    -0.000028  
  -0.000007    -0.000028     0.087170  

Tensor is right-handed
diagonalized D matrix : 
   0.019784     0.020081     0.087170  

   0.812281     0.583266     0.000103  
   0.583266    -0.812281     0.000415  
   0.000326    -0.000277    -1.000000  


Direction X=1 Y=0 Z=2
D   =     0.067238  cm**-1
E/D =     0.002209

SPIN-SPIN-PART
                   0          1          2    
      0      -0.021944  -0.000140   0.000004
      1      -0.000140  -0.021866  -0.000023
      2       0.000004  -0.000023   0.043810
Exchange and Coulomb parts of SS (raw)
Coulomb
                   0          1          2    
      0      -0.020531  -0.002151   0.000043
      1      -0.002151  -0.011718   0.000027
      2       0.000043   0.000027   0.032249
Exchange
                   0          1          2    
      0      -0.001413   0.002011  -0.000039
      1       0.002011  -0.010148  -0.000050
      2      -0.000039  -0.000050   0.011561
One-, two-, three- and four-center SS contributions (raw)
One-Center            (AA|AA):
                   0          1          2    
      0      -0.001598   0.000034  -0.000051
      1       0.000034  -0.001426   0.000070
      2      -0.000051   0.000070   0.003024
Two-Center-Coulomb    (AA|BB):
                   0          1          2    
      0      -0.314965   0.024732  -0.001536
      1       0.024732  -0.379279  -0.006074
      2      -0.001536  -0.006074   0.694244
Two-Center-Exchange   (AB|BA):
                   0          1          2    
      0      -0.013065  -0.000723   0.000394
      1      -0.000723  -0.015963   0.000306
      2       0.000394   0.000306   0.029028
Two-Center-hybrid     (AA|AB):
                   0          1          2    
      0       0.000867  -0.000174   0.000195
      1      -0.000174   0.002037  -0.000841
      2       0.000195  -0.000841  -0.002904
Three-Center-Coulomb  (AA|BC):
                   0          1          2    
      0       0.536872  -0.043676   0.005106
      1      -0.043676   0.653860   0.009467
      2       0.005106   0.009467  -1.190732
Three-Center-Exchange (AB|AC):
                   0          1          2    
      0      -0.006086   0.000154  -0.001395
      1       0.000154  -0.002414   0.000852
      2      -0.001395   0.000852   0.008499
Four-Center           (AB|CD):
                   0          1          2    
      0      -0.223969   0.019513  -0.002709
      1       0.019513  -0.278682  -0.003802
      2      -0.002709  -0.003802   0.502651
ALPHA-PART
                   0          1          2    
      0      -0.113510  -0.000003   0.000003
      1      -0.000003  -0.113521   0.000005
      2       0.000003   0.000005  -0.108851
BETA-PART
                   0          1          2    
      0      -0.111420  -0.000006   0.000004
      1      -0.000006  -0.111424   0.000018
      2       0.000004   0.000018  -0.104878
ALPHA->BETA-PART
                   0          1          2    
      0       0.230143   0.000006  -0.000019
      1       0.000006   0.230176  -0.000023
      2      -0.000019  -0.000023   0.222870
BETA->ALPHA-PART
                   0          1          2    
      0       0.036615   0.000002  -0.000000
      1       0.000002   0.036615  -0.000004
      2      -0.000000  -0.000004   0.034218

Individual contributions (in cm**-1)
                                   D         E
SPIN-SPIN                  :   0.06571    0.00014
  Exchange vs Coulomb
  Coulomb                  :   0.04837    0.00345
  Exchange                 :   0.01734   -0.00330
  One through four center contributions:
  1-center                 :   0.00454   -0.00000
  2-center-Coulomb         :   1.04137   -0.03371
  2-center-Exchange        :   0.04354    0.00022
  2-center-Hybrid          :  -0.00436    0.00035
  3-center-Coulomb         :  -1.78611    0.06008
  3-center-Exchange        :   0.01275    0.00044
  4-center                 :   0.75398   -0.02723
SPIN-ORBIT                 :   0.00152    0.00000
SOMO->VMO  (alpha->alpha)  :   0.00466    0.00000
DOMO->SOMO (beta ->beta )  :   0.00654    0.00001
SOMO->SOMO (alpha->beta )  :  -0.00729   -0.00000
DOMO->VMO  (beta ->alpha)  :  -0.00240   -0.00000


Timings for individual modules:

Sum of individual times         ...      268.528 sec (=   4.475 min)
GTO integral calculation        ...       14.894 sec (=   0.248 min)   5.5 %
Spin-Orbit-Coupling Matrices    ...       68.003 sec (=   1.133 min)  25.3 %
SCF iterations                  ...       79.866 sec (=   1.331 min)  29.7 %
EPR/NMR calculation             ...      105.766 sec (=   1.763 min)  39.4 %
                             ****ORCA TERMINATED NORMALLY****
TOTAL RUN TIME: 0 days 0 hours 4 minutes 41 seconds 653 msec
