
                                 *****************
                                 * O   R   C   A *
                                 *****************

           --- An Ab Initio, DFT and Semiempirical electronic structure package ---

                  #######################################################
                  #                        -***-                        #
                  #          Department of theory and spectroscopy      #
                  #               Directorship: Frank Neese             #
                  #        Max Planck Institute fuer Kohlenforschung    #
                  #                Kaiser Wilhelm Platz 1               #
                  #                 D-45470 Muelheim/Ruhr               #
                  #                      Germany                        #
                  #                                                     #
                  #                  All rights reserved                #
                  #                        -***-                        #
                  #######################################################


                         Program Version 4.2.1 -  RELEASE  -


 With contributions from (in alphabetic order):
   Daniel Aravena         : Magnetic Suceptibility
   Michael Atanasov       : Ab Initio Ligand Field Theory (pilot matlab implementation)
   Alexander A. Auer      : GIAO ZORA, VPT2
   Ute Becker             : Parallelization
   Giovanni Bistoni       : ED, misc. LED, open-shell LED, HFLD
   Martin Brehm           : Molecular dynamics
   Dmytro Bykov           : SCF Hessian
   Vijay G. Chilkuri      : MRCI spin determinant printing, contributions to CSF-ICE
   Dipayan Datta          : RHF DLPNO-CCSD density
   Achintya Kumar Dutta   : EOM-CC, STEOM-CC
   Dmitry Ganyushin       : Spin-Orbit,Spin-Spin,Magnetic field MRCI
   Miquel Garcia          : C-PCM Hessian, Gaussian charge scheme
   Yang Guo               : DLPNO-NEVPT2, CIM, IAO-localization
   Andreas Hansen         : Spin unrestricted coupled pair/coupled cluster methods
   Benjamin Helmich-Paris : CASSCF linear response (MC-RPA)
   Lee Huntington         : MR-EOM, pCC
   Robert Izsak           : Overlap fitted RIJCOSX, COSX-SCS-MP3, EOM
   Christian Kollmar      : KDIIS, OOCD, Brueckner-CCSD(T), CCSD density
   Simone Kossmann        : Meta GGA functionals, TD-DFT gradient, OOMP2, MP2 Hessian
   Martin Krupicka        : AUTO-CI
   Lucas Lang             : DCDCAS
   Dagmar Lenk            : GEPOL surface, SMD
   Dimitrios Liakos       : Extrapolation schemes; Compound Job, initial MDCI parallelization
   Dimitrios Manganas     : Further ROCIS development; embedding schemes
   Dimitrios Pantazis     : SARC Basis sets
   Taras Petrenko         : DFT Hessian,TD-DFT gradient, ASA, ECA, R-Raman, ABS, FL, XAS/XES, NRVS
   Peter Pinski           : DLPNO-MP2, DLPNO-MP2 Gradient
   Christoph Reimann      : Effective Core Potentials
   Marius Retegan         : Local ZFS, SOC
   Christoph Riplinger    : Optimizer, TS searches, QM/MM, DLPNO-CCSD(T), (RO)-DLPNO pert. Triples
   Tobias Risthaus        : Range-separated hybrids, TD-DFT gradient, RPA, STAB
   Michael Roemelt        : Original ROCIS implementation
   Masaaki Saitow         : Open-shell DLPNO-CCSD energy and density
   Barbara Sandhoefer     : DKH picture change effects
   Avijit Sen             : IP-ROCIS
   Kantharuban Sivalingam : CASSCF convergence, NEVPT2, FIC-MRCI
   Bernardo de Souza      : ESD, SOC TD-DFT
   Georgi Stoychev        : AutoAux, RI-MP2 NMR
   Willem Van den Heuvel  : Paramagnetic NMR
   Boris Wezisla          : Elementary symmetry handling
   Frank Wennmohs         : Technical directorship


 We gratefully acknowledge several colleagues who have allowed us to
 interface, adapt or use parts of their codes:
   Stefan Grimme, W. Hujo, H. Kruse,             : VdW corrections, initial TS optimization,
                  C. Bannwarth                     DFT functionals, gCP, sTDA/sTD-DF
   Ed Valeev, F. Pavosevic, A. Kumar             : LibInt (2-el integral package), F12 methods
   Garnet Chan, S. Sharma, J. Yang, R. Olivares  : DMRG
   Ulf Ekstrom                                   : XCFun DFT Library
   Mihaly Kallay                                 : mrcc  (arbitrary order and MRCC methods)
   Andreas Klamt, Michael Diedenhofen            : otool_cosmo (COSMO solvation model)
   Jiri Pittner, Ondrej Demel                    : Mk-CCSD
   Frank Weinhold                                : gennbo (NPA and NBO analysis)
   Christopher J. Cramer and Donald G. Truhlar   : smd solvation model
   Lars Goerigk                                  : TD-DFT with DH, B97 family of functionals
   V. Asgeirsson, H. Jonsson                     : NEB implementation
   FAccTs GmbH                                   : IRC, NEB, NEB-TS, Multilevel, MM, QM/MM, CI optimization
   S Lehtola, MJT Oliveira, MAL Marques          : LibXC Library


 Your calculation uses the libint2 library for the computation of 2-el integrals
 For citations please refer to: http://libint.valeyev.net

 Your ORCA version has been built with support for libXC version: 4.2.3
 For citations please refer to: https://tddft.org/programs/libxc/

 This ORCA versions uses:
   CBLAS   interface :  Fast vector & matrix operations
   LAPACKE interface :  Fast linear algebra routines
   SCALAPACK package :  Parallel linear algebra routines




***************************************
The coordinates will be read from file: nv_cluster.xyz
***************************************


----- Orbital basis set information -----
Your calculation utilizes the basis: EPR-II
   V. Barone, in Recent Advances in Density Functional Methods, Part 1 (ed. D. P. Chong), World Scientific, Singapore, 1995, p. 287.

----- AuxJ basis set information -----
Your calculation utilizes the AutoAux generation procedure.
  G. L. Stoychev, A. A. Auer, F. Neese, J. Chem. Theory Comput. 13, 554 (2017)

----- AuxC basis set information -----
Your calculation utilizes the AutoAux generation procedure.
  G. L. Stoychev, A. A. Auer, F. Neese, J. Chem. Theory Comput. 13, 554 (2017)

----- AuxJK basis set information -----
Your calculation utilizes the AutoAux generation procedure.
  G. L. Stoychev, A. A. Auer, F. Neese, J. Chem. Theory Comput. 13, 554 (2017)

================================================================================
                                        WARNINGS
                       Please study these warnings very carefully!
================================================================================


WARNING: your system is open-shell and RHF/RKS was chosen
  ===> : WILL SWITCH to UHF/UKS


INFO   : the flag for use of LIBINT has been found!

================================================================================
                                       INPUT FILE
================================================================================
NAME = epr.in
|  1> 
|  2> # Use EPR-II is a special basis set for epr, autoaux creates a large auxiliary basis set
|  3> !PBE EPR-II AUTOAUX RIJCOSX
|  4> 
|  5> # use original (unoptimized) cluster xyz
|  6> *xyzfile -1 3 nv_cluster.xyz
|  7> 
|  8> # Parallelization
|  9> %PAL NPROCS 72 END
| 10> 
| 11> # EPR calculation
| 12> %EPRNMR
| 13>     GTENSOR     TRUE
| 14>     NUCLEI      = ALL N {AISO, ADIP}
| 15> END
| 16> 
| 17>                          ****END OF INPUT****
================================================================================

                       ****************************
                       * Single Point Calculation *
                       ****************************

---------------------------------
CARTESIAN COORDINATES (ANGSTROEM)
---------------------------------
  C      8.091600    6.206040    8.091600
  C      8.028270    8.028270    9.810990
  C      9.804780    6.248830    6.248830
  C      6.248830    9.804780    6.248830
  C      6.248830    6.248830    9.804780
  C      8.013620    6.253760    4.476130
  C      4.476130    6.253760    8.013620
  C      6.253760    8.013620    4.476130
  C      6.253760    4.476130    8.013620
  C      8.013620    4.476130    6.253760
  C      4.476130    8.013620    6.253760
  C      5.355250    5.355250    7.096690
  C      5.355250    7.096690    5.355250
  C      7.096690    5.355250    5.355250
  C      8.917750    8.917750    7.130610
  C      8.917750    7.130610    8.917750
  C      7.130610    8.917750    8.917750
  C      8.907460    7.147320    5.371140
  C      5.371140    7.147320    8.907460
  C      7.147320    8.907460    5.371140
  C      7.147320    5.371140    8.907460
  C      8.907460    5.371140    7.147320
  C      5.371140    8.907460    7.147320
  C      8.091600    8.091600    6.206040
  C      6.206040    8.091600    8.091600
  C      9.810990    8.028270    8.028270
  C      8.028270    9.810990    8.028270
  N      6.164130    6.164130    6.164130
  H      7.413360    7.413360   10.434410
  H      8.648950    8.648950   10.422890
  H     10.436790    6.859340    6.859340
  H     10.413920    5.626790    5.626790
  H      5.623980   10.408140    5.623980
  H      6.856400   10.442440    6.856400
  H      6.859340    6.859340   10.436790
  H      5.626790    5.626790   10.413920
  H      7.405680    6.875000    3.852130
  H      8.638760    5.628850    3.873150
  H      3.864670    5.633050    8.634700
  H      3.860530    6.879190    7.401440
  H      5.633050    8.634700    3.864670
  H      6.879190    7.401440    3.860530
  H      6.875000    3.852130    7.405680
  H      5.628850    3.873150    8.638760
  H      8.634700    3.864670    5.633050
  H      7.401440    3.860530    6.879190
  H      3.852130    7.405680    6.875000
  H      3.873150    8.638760    5.628850
  H      4.732430    4.732430    6.489170
  H      4.732430    6.489170    4.732430
  H      6.489170    4.732430    4.732430
  H      9.540160    9.540160    6.522250
  H      9.540160    6.522250    9.540160
  H      6.522250    9.540160    9.540160
  H      9.525800    7.755210    4.744220
  H      4.744220    7.755210    9.525800
  H      7.755210    9.525800    4.744220
  H      7.755210    4.744220    9.525800
  H      9.525800    4.744220    7.755210
  H      4.744220    9.525800    7.755210
  H     10.423080    8.648860    8.648860
  H     10.434230    7.413260    7.413260
  H      7.413360   10.434410    7.413360
  H      8.648950   10.422890    8.648950

----------------------------
CARTESIAN COORDINATES (A.U.)
----------------------------
  NO LB      ZA    FRAG     MASS         X           Y           Z
   0 C     6.0000    0    12.011   15.290908   11.727716   15.290908
   1 C     6.0000    0    12.011   15.171232   15.171232   18.540084
   2 C     6.0000    0    12.011   18.528349   11.808577   11.808577
   3 C     6.0000    0    12.011   11.808577   18.528349   11.808577
   4 C     6.0000    0    12.011   11.808577   11.808577   18.528349
   5 C     6.0000    0    12.011   15.143547   11.817894    8.458660
   6 C     6.0000    0    12.011    8.458660   11.817894   15.143547
   7 C     6.0000    0    12.011   11.817894   15.143547    8.458660
   8 C     6.0000    0    12.011   11.817894    8.458660   15.143547
   9 C     6.0000    0    12.011   15.143547    8.458660   11.817894
  10 C     6.0000    0    12.011    8.458660   15.143547   11.817894
  11 C     6.0000    0    12.011   10.119956   10.119956   13.410801
  12 C     6.0000    0    12.011   10.119956   13.410801   10.119956
  13 C     6.0000    0    12.011   13.410801   10.119956   10.119956
  14 C     6.0000    0    12.011   16.852105   16.852105   13.474900
  15 C     6.0000    0    12.011   16.852105   13.474900   16.852105
  16 C     6.0000    0    12.011   13.474900   16.852105   16.852105
  17 C     6.0000    0    12.011   16.832660   13.506477   10.149984
  18 C     6.0000    0    12.011   10.149984   13.506477   16.832660
  19 C     6.0000    0    12.011   13.506477   16.832660   10.149984
  20 C     6.0000    0    12.011   13.506477   10.149984   16.832660
  21 C     6.0000    0    12.011   16.832660   10.149984   13.506477
  22 C     6.0000    0    12.011   10.149984   16.832660   13.506477
  23 C     6.0000    0    12.011   15.290908   15.290908   11.727716
  24 C     6.0000    0    12.011   11.727716   15.290908   15.290908
  25 C     6.0000    0    12.011   18.540084   15.171232   15.171232
  26 C     6.0000    0    12.011   15.171232   18.540084   15.171232
  27 N     7.0000    0    14.007   11.648518   11.648518   11.648518
  28 H     1.0000    0     1.008   14.009220   14.009220   19.718177
  29 H     1.0000    0     1.008   16.344147   16.344147   19.696408
  30 H     1.0000    0     1.008   19.722675   12.962274   12.962274
  31 H     1.0000    0     1.008   19.679457   10.633092   10.633092
  32 H     1.0000    0     1.008   10.627782   19.668534   10.627782
  33 H     1.0000    0     1.008   12.956718   19.733352   12.956718
  34 H     1.0000    0     1.008   12.962274   12.962274   19.722675
  35 H     1.0000    0     1.008   10.633092   10.633092   19.679457
  36 H     1.0000    0     1.008   13.994707   12.991867    7.279471
  37 H     1.0000    0     1.008   16.324891   10.636985    7.319193
  38 H     1.0000    0     1.008    7.303168   10.644922   16.317218
  39 H     1.0000    0     1.008    7.295344   12.999785   13.986695
  40 H     1.0000    0     1.008   10.644922   16.317218    7.303168
  41 H     1.0000    0     1.008   12.999785   13.986695    7.295344
  42 H     1.0000    0     1.008   12.991867    7.279471   13.994707
  43 H     1.0000    0     1.008   10.636985    7.319193   16.324891
  44 H     1.0000    0     1.008   16.317218    7.303168   10.644922
  45 H     1.0000    0     1.008   13.986695    7.295344   12.999785
  46 H     1.0000    0     1.008    7.279471   13.994707   12.991867
  47 H     1.0000    0     1.008    7.319193   16.324891   10.636985
  48 H     1.0000    0     1.008    8.942997    8.942997   12.262754
  49 H     1.0000    0     1.008    8.942997   12.262754    8.942997
  50 H     1.0000    0     1.008   12.262754    8.942997    8.942997
  51 H     1.0000    0     1.008   18.028290   18.028290   12.325266
  52 H     1.0000    0     1.008   18.028290   12.325266   18.028290
  53 H     1.0000    0     1.008   12.325266   18.028290   18.028290
  54 H     1.0000    0     1.008   18.001153   14.655223    8.965277
  55 H     1.0000    0     1.008    8.965277   14.655223   18.001153
  56 H     1.0000    0     1.008   14.655223   18.001153    8.965277
  57 H     1.0000    0     1.008   14.655223    8.965277   18.001153
  58 H     1.0000    0     1.008   18.001153    8.965277   14.655223
  59 H     1.0000    0     1.008    8.965277   18.001153   14.655223
  60 H     1.0000    0     1.008   19.696767   16.343977   16.343977
  61 H     1.0000    0     1.008   19.717837   14.009031   14.009031
  62 H     1.0000    0     1.008   14.009220   19.718177   14.009220
  63 H     1.0000    0     1.008   16.344147   19.696408   16.344147

--------------------------------
INTERNAL COORDINATES (ANGSTROEM)
--------------------------------
 C      0   0   0     0.000000000000     0.00000000     0.00000000
 C      1   0   0     2.506159379190     0.00000000     0.00000000
 C      1   2   0     2.516469346008   120.47980163     0.00000000
 C      2   1   3     4.360203935517    75.28951276    76.22046809
 C      1   2   3     2.516469346008    60.13666109   185.28092605
 C      3   1   2     2.520068201557    91.79198254   238.71168205
 C      5   1   2     2.520068201557    91.79198254   123.94390755
 C      6   3   1     2.488817879878   120.26270367    55.80981499
 C      7   5   1     2.513948454881    60.08029854    53.58771898
 C      9   7   5     2.488817879878   120.00000000   250.17453640
 C      7   5   1     2.488817879878   120.26270367   304.19018501
 C      7   5   1     1.555934709234    91.16208969    34.31291560
 C      8   6   3     1.555934709234    89.52036489   268.93440633
 C      6   3   1     1.555934709234    91.16208969   325.68708440
 C      3   1   2     2.947455199948    65.88564782   327.58081757
 C      1   2   3     1.489925276616    35.15413206    36.91849483
 C      2   1   3     1.547528947581    92.09616738    86.26473595
 C      3   1   2     1.543634412223    91.74895805   274.21412918
 C      5   1   2     1.543634412223    91.74895805    88.44146042
 C      4   2   1     1.543634412223    89.43444612   329.10816183
 C      1   2   3     1.501449389090    90.89531622   168.18484645
 C      1   2   3     1.501449389090   148.15947890    30.90318513
 C      4   2   1     1.543634412223    61.29327482    81.12116562
 C     15   3   1     1.489925276616    58.60965677   280.74828730
 C     17   2   1     1.489925276616   111.18020203    33.04196419
 C     15   3   1     1.547528947581    58.62536457    70.95401177
 C     15   3   1     1.547528947581   150.36231022   358.24113344
 N     12   7   5     1.475886805416   111.44049815   266.47389401
 H      2   1   3     1.069991174076    89.79353307   195.73746053
 H      2   1   3     1.070004175132   143.07771550   319.13264563
 H      3   1   2     1.069991383283    89.65615315    23.82610373
 H      3   1   2     1.070008907813   143.45442016   146.59818792
 H      4   2   1     1.070008567536   160.93593747   146.72547784
 H      4   2   1     1.069996675415    63.07526487   216.46486797
 H     29   2   1     0.783506212611   144.53757974   327.85866188
 H      5   1   2     1.070008907813   143.45442016   216.05740169
 H      6   3   1     1.070002888407   144.60621113    92.43846601
 H      6   3   1     1.069998788831    88.85454943   216.71123382
 H      7   5   1     1.070002150512    89.32899054   143.56976877
 H      7   5   1     1.069995512748   144.34071963   268.39352698
 H      8   6   3     1.070002150512   145.14812122   144.50547090
 H     37   6   3     0.744581327794   143.67472723   297.93895215
 H      9   7   5     1.070002888407   145.37731396   214.72621590
 H      9   7   5     1.069998788831    89.16961751    89.15623899
 H     10   9   7     1.070002150512   145.14812122   215.23987415
 H     43   9   7     0.744581327794   143.67472723    59.45941249
 H     40   7   5     0.744581327794   145.51898321    61.41526941
 H     11   7   5     1.069998788831   145.69949232   215.48546727
 H     12   7   5     1.069995352887   109.98974505   148.94952807
 H     13   8   6     1.069995352887   109.98974505   269.20901610
 H     14   6   3     1.069995352887   109.98974505   211.05047193
 H     15   3   1     1.069995469990   100.46117684   177.12691771
 H     16   1   2     1.069995469990   106.99375317   119.12222917
 H     17   2   1     1.069995469990   109.17093523   150.85301270
 H     18   3   1     1.070001539298   109.14085342   150.53266699
 H     19   5   1     1.070001539298   109.14085342   209.46733301
 H     20   4   2     1.070001539298   109.14085342   239.07347811
 H     21   1   2     1.070001539298   106.41038929   267.64060383
 H     22   1   2     1.070001539298   106.41038929    68.05132377
 H     23   4   2     1.070001539298   109.14085342   101.69249187
 H     26  15   3     1.070008441228   109.46620566   150.41611367
 H     31   3   1     0.783365359459   143.60831212   328.00561943
 H     34   4   2     0.787701316553   142.83582035    18.92060647
 H     27  15   3     1.070004175132   109.46008504   119.16576000

---------------------------
INTERNAL COORDINATES (A.U.)
---------------------------
 C      0   0   0     0.000000000000     0.00000000     0.00000000
 C      1   0   0     4.735954874626     0.00000000     0.00000000
 C      1   2   0     4.755437888364   120.47980163     0.00000000
 C      2   1   3     8.239591326173    75.28951276    76.22046809
 C      1   2   3     4.755437888364    60.13666109   185.28092605
 C      3   1   2     4.762238739747    91.79198254   238.71168205
 C      5   1   2     4.762238739747    91.79198254   123.94390755
 C      6   3   1     4.703184190176   120.26270367    55.80981499
 C      7   5   1     4.750674094520    60.08029854    53.58771898
 C      9   7   5     4.703184190176   120.00000000   250.17453640
 C      7   5   1     4.703184190176   120.26270367   304.19018501
 C      7   5   1     2.940290482715    91.16208969    34.31291560
 C      8   6   3     2.940290482715    89.52036489   268.93440633
 C      6   3   1     2.940290482715    91.16208969   325.68708440
 C      3   1   2     5.569883119904    65.88564782   327.58081757
 C      1   2   3     2.815550732812    35.15413206    36.91849483
 C      2   1   3     2.924405895243    92.09616738    86.26473595
 C      3   1   2     2.917046289999    91.74895805   274.21412918
 C      5   1   2     2.917046289999    91.74895805    88.44146042
 C      4   2   1     2.917046289999    89.43444612   329.10816183
 C      1   2   3     2.837328149324    90.89531622   168.18484645
 C      1   2   3     2.837328149324   148.15947890    30.90318513
 C      4   2   1     2.917046289999    61.29327482    81.12116562
 C     15   3   1     2.815550732812    58.60965677   280.74828730
 C     17   2   1     2.815550732812   111.18020203    33.04196419
 C     15   3   1     2.924405895243    58.62536457    70.95401177
 C     15   3   1     2.924405895243   150.36231022   358.24113344
 N     12   7   5     2.789021866903   111.44049815   266.47389401
 H      2   1   3     2.021990284716    89.79353307   195.73746053
 H      2   1   3     2.022014853152   143.07771550   319.13264563
 H      3   1   2     2.021990680061    89.65615315    23.82610373
 H      3   1   2     2.022023796623   143.45442016   146.59818792
 H      4   2   1     2.022023153592   160.93593747   146.72547784
 H      4   2   1     2.022000680741    63.07526487   216.46486797
 H     29   2   1     1.480612166061   144.53757974   327.85866188
 H      5   1   2     2.022023796623   143.45442016   216.05740169
 H      6   3   1     2.022012421595   144.60621113    92.43846601
 H      6   3   1     2.022004674518    88.85454943   216.71123382
 H      7   5   1     2.022011027174    89.32899054   143.56976877
 H      7   5   1     2.021998483618   144.34071963   268.39352698
 H      8   6   3     2.022011027174   145.14812122   144.50547090
 H     37   6   3     1.407054793963   143.67472723   297.93895215
 H      9   7   5     2.022012421595   145.37731396   214.72621590
 H      9   7   5     2.022004674518    89.16961751    89.15623899
 H     10   9   7     2.022011027174   145.14812122   215.23987415
 H     43   9   7     1.407054793963   143.67472723    59.45941249
 H     40   7   5     1.407054793963   145.51898321    61.41526941
 H     11   7   5     2.022004674518   145.69949232   215.48546727
 H     12   7   5     2.021998181525   109.98974505   148.94952807
 H     13   8   6     2.021998181525   109.98974505   269.20901610
 H     14   6   3     2.021998181525   109.98974505   211.05047193
 H     15   3   1     2.021998402818   100.46117684   177.12691771
 H     16   1   2     2.021998402818   106.99375317   119.12222917
 H     17   2   1     2.021998402818   109.17093523   150.85301270
 H     18   3   1     2.022009872147   109.14085342   150.53266699
 H     19   5   1     2.022009872147   109.14085342   209.46733301
 H     20   4   2     2.022009872147   109.14085342   239.07347811
 H     21   1   2     2.022009872147   106.41038929   267.64060383
 H     22   1   2     2.022009872147   106.41038929    68.05132377
 H     23   4   2     2.022009872147   109.14085342   101.69249187
 H     26  15   3     2.022022914906   109.46620566   150.41611367
 H     31   3   1     1.480345992178   143.60831212   328.00561943
 H     34   4   2     1.488539763615   142.83582035    18.92060647
 H     27  15   3     2.022014853152   109.46008504   119.16576000

---------------------
BASIS SET INFORMATION
---------------------
There are 3 groups of distinct atoms

 Group   1 Type C   : 10s5p1d contracted to 6s2p1d pattern {511111/41/1}
 Group   2 Type N   : 10s5p1d contracted to 6s2p1d pattern {511111/41/1}
 Group   3 Type H   : 6s1p contracted to 4s1p pattern {3111/1}

Atom   0C    basis set group =>   1
Atom   1C    basis set group =>   1
Atom   2C    basis set group =>   1
Atom   3C    basis set group =>   1
Atom   4C    basis set group =>   1
Atom   5C    basis set group =>   1
Atom   6C    basis set group =>   1
Atom   7C    basis set group =>   1
Atom   8C    basis set group =>   1
Atom   9C    basis set group =>   1
Atom  10C    basis set group =>   1
Atom  11C    basis set group =>   1
Atom  12C    basis set group =>   1
Atom  13C    basis set group =>   1
Atom  14C    basis set group =>   1
Atom  15C    basis set group =>   1
Atom  16C    basis set group =>   1
Atom  17C    basis set group =>   1
Atom  18C    basis set group =>   1
Atom  19C    basis set group =>   1
Atom  20C    basis set group =>   1
Atom  21C    basis set group =>   1
Atom  22C    basis set group =>   1
Atom  23C    basis set group =>   1
Atom  24C    basis set group =>   1
Atom  25C    basis set group =>   1
Atom  26C    basis set group =>   1
Atom  27N    basis set group =>   2
Atom  28H    basis set group =>   3
Atom  29H    basis set group =>   3
Atom  30H    basis set group =>   3
Atom  31H    basis set group =>   3
Atom  32H    basis set group =>   3
Atom  33H    basis set group =>   3
Atom  34H    basis set group =>   3
Atom  35H    basis set group =>   3
Atom  36H    basis set group =>   3
Atom  37H    basis set group =>   3
Atom  38H    basis set group =>   3
Atom  39H    basis set group =>   3
Atom  40H    basis set group =>   3
Atom  41H    basis set group =>   3
Atom  42H    basis set group =>   3
Atom  43H    basis set group =>   3
Atom  44H    basis set group =>   3
Atom  45H    basis set group =>   3
Atom  46H    basis set group =>   3
Atom  47H    basis set group =>   3
Atom  48H    basis set group =>   3
Atom  49H    basis set group =>   3
Atom  50H    basis set group =>   3
Atom  51H    basis set group =>   3
Atom  52H    basis set group =>   3
Atom  53H    basis set group =>   3
Atom  54H    basis set group =>   3
Atom  55H    basis set group =>   3
Atom  56H    basis set group =>   3
Atom  57H    basis set group =>   3
Atom  58H    basis set group =>   3
Atom  59H    basis set group =>   3
Atom  60H    basis set group =>   3
Atom  61H    basis set group =>   3
Atom  62H    basis set group =>   3
Atom  63H    basis set group =>   3
---------------------------------
AUXILIARY/J BASIS SET INFORMATION
---------------------------------
There are 3 groups of distinct atoms

 Group   1 Type C   : 17s13p12d2f contracted to 17s13p12d2f pattern {11111111111111111/1111111111111/111111111111/11}
 Group   2 Type N   : 17s13p12d2f contracted to 17s13p12d2f pattern {11111111111111111/1111111111111/111111111111/11}
 Group   3 Type H   : 15s6p1d contracted to 15s6p1d pattern {111111111111111/111111/1}

Atom   0C    basis set group =>   1
Atom   1C    basis set group =>   1
Atom   2C    basis set group =>   1
Atom   3C    basis set group =>   1
Atom   4C    basis set group =>   1
Atom   5C    basis set group =>   1
Atom   6C    basis set group =>   1
Atom   7C    basis set group =>   1
Atom   8C    basis set group =>   1
Atom   9C    basis set group =>   1
Atom  10C    basis set group =>   1
Atom  11C    basis set group =>   1
Atom  12C    basis set group =>   1
Atom  13C    basis set group =>   1
Atom  14C    basis set group =>   1
Atom  15C    basis set group =>   1
Atom  16C    basis set group =>   1
Atom  17C    basis set group =>   1
Atom  18C    basis set group =>   1
Atom  19C    basis set group =>   1
Atom  20C    basis set group =>   1
Atom  21C    basis set group =>   1
Atom  22C    basis set group =>   1
Atom  23C    basis set group =>   1
Atom  24C    basis set group =>   1
Atom  25C    basis set group =>   1
Atom  26C    basis set group =>   1
Atom  27N    basis set group =>   2
Atom  28H    basis set group =>   3
Atom  29H    basis set group =>   3
Atom  30H    basis set group =>   3
Atom  31H    basis set group =>   3
Atom  32H    basis set group =>   3
Atom  33H    basis set group =>   3
Atom  34H    basis set group =>   3
Atom  35H    basis set group =>   3
Atom  36H    basis set group =>   3
Atom  37H    basis set group =>   3
Atom  38H    basis set group =>   3
Atom  39H    basis set group =>   3
Atom  40H    basis set group =>   3
Atom  41H    basis set group =>   3
Atom  42H    basis set group =>   3
Atom  43H    basis set group =>   3
Atom  44H    basis set group =>   3
Atom  45H    basis set group =>   3
Atom  46H    basis set group =>   3
Atom  47H    basis set group =>   3
Atom  48H    basis set group =>   3
Atom  49H    basis set group =>   3
Atom  50H    basis set group =>   3
Atom  51H    basis set group =>   3
Atom  52H    basis set group =>   3
Atom  53H    basis set group =>   3
Atom  54H    basis set group =>   3
Atom  55H    basis set group =>   3
Atom  56H    basis set group =>   3
Atom  57H    basis set group =>   3
Atom  58H    basis set group =>   3
Atom  59H    basis set group =>   3
Atom  60H    basis set group =>   3
Atom  61H    basis set group =>   3
Atom  62H    basis set group =>   3
Atom  63H    basis set group =>   3
---------------------------------
AUXILIARY/C BASIS SET INFORMATION
---------------------------------
There are 3 groups of distinct atoms

 Group   1 Type C   : 17s13p12d2f contracted to 17s13p12d2f pattern {11111111111111111/1111111111111/111111111111/11}
 Group   2 Type N   : 17s13p12d2f contracted to 17s13p12d2f pattern {11111111111111111/1111111111111/111111111111/11}
 Group   3 Type H   : 15s6p1d contracted to 15s6p1d pattern {111111111111111/111111/1}

Atom   0C    basis set group =>   1
Atom   1C    basis set group =>   1
Atom   2C    basis set group =>   1
Atom   3C    basis set group =>   1
Atom   4C    basis set group =>   1
Atom   5C    basis set group =>   1
Atom   6C    basis set group =>   1
Atom   7C    basis set group =>   1
Atom   8C    basis set group =>   1
Atom   9C    basis set group =>   1
Atom  10C    basis set group =>   1
Atom  11C    basis set group =>   1
Atom  12C    basis set group =>   1
Atom  13C    basis set group =>   1
Atom  14C    basis set group =>   1
Atom  15C    basis set group =>   1
Atom  16C    basis set group =>   1
Atom  17C    basis set group =>   1
Atom  18C    basis set group =>   1
Atom  19C    basis set group =>   1
Atom  20C    basis set group =>   1
Atom  21C    basis set group =>   1
Atom  22C    basis set group =>   1
Atom  23C    basis set group =>   1
Atom  24C    basis set group =>   1
Atom  25C    basis set group =>   1
Atom  26C    basis set group =>   1
Atom  27N    basis set group =>   2
Atom  28H    basis set group =>   3
Atom  29H    basis set group =>   3
Atom  30H    basis set group =>   3
Atom  31H    basis set group =>   3
Atom  32H    basis set group =>   3
Atom  33H    basis set group =>   3
Atom  34H    basis set group =>   3
Atom  35H    basis set group =>   3
Atom  36H    basis set group =>   3
Atom  37H    basis set group =>   3
Atom  38H    basis set group =>   3
Atom  39H    basis set group =>   3
Atom  40H    basis set group =>   3
Atom  41H    basis set group =>   3
Atom  42H    basis set group =>   3
Atom  43H    basis set group =>   3
Atom  44H    basis set group =>   3
Atom  45H    basis set group =>   3
Atom  46H    basis set group =>   3
Atom  47H    basis set group =>   3
Atom  48H    basis set group =>   3
Atom  49H    basis set group =>   3
Atom  50H    basis set group =>   3
Atom  51H    basis set group =>   3
Atom  52H    basis set group =>   3
Atom  53H    basis set group =>   3
Atom  54H    basis set group =>   3
Atom  55H    basis set group =>   3
Atom  56H    basis set group =>   3
Atom  57H    basis set group =>   3
Atom  58H    basis set group =>   3
Atom  59H    basis set group =>   3
Atom  60H    basis set group =>   3
Atom  61H    basis set group =>   3
Atom  62H    basis set group =>   3
Atom  63H    basis set group =>   3
----------------------------------
AUXILIARY/JK BASIS SET INFORMATION
----------------------------------
There are 3 groups of distinct atoms

 Group   1 Type C   : 17s13p12d2f contracted to 17s13p12d2f pattern {11111111111111111/1111111111111/111111111111/11}
 Group   2 Type N   : 17s13p12d2f contracted to 17s13p12d2f pattern {11111111111111111/1111111111111/111111111111/11}
 Group   3 Type H   : 15s6p1d contracted to 15s6p1d pattern {111111111111111/111111/1}

Atom   0C    basis set group =>   1
Atom   1C    basis set group =>   1
Atom   2C    basis set group =>   1
Atom   3C    basis set group =>   1
Atom   4C    basis set group =>   1
Atom   5C    basis set group =>   1
Atom   6C    basis set group =>   1
Atom   7C    basis set group =>   1
Atom   8C    basis set group =>   1
Atom   9C    basis set group =>   1
Atom  10C    basis set group =>   1
Atom  11C    basis set group =>   1
Atom  12C    basis set group =>   1
Atom  13C    basis set group =>   1
Atom  14C    basis set group =>   1
Atom  15C    basis set group =>   1
Atom  16C    basis set group =>   1
Atom  17C    basis set group =>   1
Atom  18C    basis set group =>   1
Atom  19C    basis set group =>   1
Atom  20C    basis set group =>   1
Atom  21C    basis set group =>   1
Atom  22C    basis set group =>   1
Atom  23C    basis set group =>   1
Atom  24C    basis set group =>   1
Atom  25C    basis set group =>   1
Atom  26C    basis set group =>   1
Atom  27N    basis set group =>   2
Atom  28H    basis set group =>   3
Atom  29H    basis set group =>   3
Atom  30H    basis set group =>   3
Atom  31H    basis set group =>   3
Atom  32H    basis set group =>   3
Atom  33H    basis set group =>   3
Atom  34H    basis set group =>   3
Atom  35H    basis set group =>   3
Atom  36H    basis set group =>   3
Atom  37H    basis set group =>   3
Atom  38H    basis set group =>   3
Atom  39H    basis set group =>   3
Atom  40H    basis set group =>   3
Atom  41H    basis set group =>   3
Atom  42H    basis set group =>   3
Atom  43H    basis set group =>   3
Atom  44H    basis set group =>   3
Atom  45H    basis set group =>   3
Atom  46H    basis set group =>   3
Atom  47H    basis set group =>   3
Atom  48H    basis set group =>   3
Atom  49H    basis set group =>   3
Atom  50H    basis set group =>   3
Atom  51H    basis set group =>   3
Atom  52H    basis set group =>   3
Atom  53H    basis set group =>   3
Atom  54H    basis set group =>   3
Atom  55H    basis set group =>   3
Atom  56H    basis set group =>   3
Atom  57H    basis set group =>   3
Atom  58H    basis set group =>   3
Atom  59H    basis set group =>   3
Atom  60H    basis set group =>   3
Atom  61H    basis set group =>   3
Atom  62H    basis set group =>   3
Atom  63H    basis set group =>   3


           ************************************************************
           *        Program running with 72 parallel MPI-processes    *
           *              working on a shared directory               *
           ************************************************************
------------------------------------------------------------------------------
                           ORCA GTO INTEGRAL CALCULATION
                           -- RI-GTO INTEGRALS CHOSEN --
------------------------------------------------------------------------------

                         BASIS SET STATISTICS AND STARTUP INFO

Gaussian basis set:
 # of primitive gaussian shells          ...  700
 # of primitive gaussian functions       ... 1164
 # of contracted shells                  ...  432
 # of contracted basis functions         ...  728
 Highest angular momentum                ...    2
 Maximum contraction depth               ...    5
Auxiliary gaussian basis set:
 # of primitive gaussian shells          ... 2024
 # of primitive gaussian functions       ... 5008
 # of contracted shells                  ... 2024
 # of contracted aux-basis functions     ... 5008
 Highest angular momentum                ...    3
 Maximum contraction depth               ...    1
Ratio of auxiliary to basis functions    ...  6.88
Integral package used                  ... LIBINT
 One Electron integrals                  ... done
 Ordering auxiliary basis shells         ... done
 Integral threshhold             Thresh  ...  1.000e-10
 Primitive cut-off               TCut    ...  1.000e-11
 Pre-screening matrix                    ... done
 Shell pair data                         ... 
 Ordering of the shell pairs             ... done (   0.014 sec) 66469 of 93528 pairs
 Determination of significant pairs      ... done (   0.000 sec)
 Creation of shell pair data             ... done (   0.010 sec)
 Storage of shell pair data              ... done (   0.117 sec)
 Shell pair data done in (   0.141 sec)
 Computing two index integrals           ... done
 Cholesky decomposition of the V-matrix  ... done


Timings:
 Total evaluation time                   ...   4.798 sec (  0.080 min)
 One electron matrix time                ...   0.686 sec (  0.011 min) = 14.3%
 Schwartz matrix evaluation time         ...   0.426 sec (  0.007 min) =  8.9%
 Two index repulsion integral time       ...   0.922 sec (  0.015 min) = 19.2%
 Cholesky decomposition of V             ...   2.566 sec (  0.043 min) = 53.5%
 Three index repulsion integral time     ...   0.000 sec (  0.000 min) =  0.0%



           ************************************************************
           *        Program running with 72 parallel MPI-processes    *
           *              working on a shared directory               *
           ************************************************************
-------------------------------------------------------------------------------
                                 ORCA SCF
-------------------------------------------------------------------------------

------------
SCF SETTINGS
------------
Hamiltonian:
 Density Functional     Method          .... DFT(GTOs)
 Exchange Functional    Exchange        .... PBE
   PBE kappa parameter   XKappa         ....  0.804000
   PBE mue parameter    XMuePBE         ....  0.219520
 Correlation Functional Correlation     .... PBE
   PBE beta parameter  CBetaPBE         ....  0.066725
 LDA part of GGA corr.  LDAOpt          .... PW91-LDA
 Gradients option       PostSCFGGA      .... off
   Density functional embedding theory  .... OFF
   NL short-range parameter             ....  6.400000
 RI-approximation to the Coulomb term is turned on
   Number of auxiliary basis functions  .... 5008
   RIJ-COSX (HFX calculated with COS-X)).... on


General Settings:
 Integral files         IntName         .... epr
 Hartree-Fock type      HFTyp           .... UHF
 Total Charge           Charge          ....   -1
 Multiplicity           Mult            ....    3
 Number of Electrons    NEL             ....  206
 Basis Dimension        Dim             ....  728
 Nuclear Repulsion      ENuc            ....   3308.0182243876 Eh

Convergence Acceleration:
 DIIS                   CNVDIIS         .... on
   Start iteration      DIISMaxIt       ....    12
   Startup error        DIISStart       ....  0.200000
   # of expansion vecs  DIISMaxEq       ....     5
   Bias factor          DIISBfac        ....   1.050
   Max. coefficient     DIISMaxC        ....  10.000
 Newton-Raphson         CNVNR           .... off
 SOSCF                  CNVSOSCF        .... off
 Level Shifting         CNVShift        .... on
   Level shift para.    LevelShift      ....    0.2500
   Turn off err/grad.   ShiftErr        ....    0.0010
 Zerner damping         CNVZerner       .... off
 Static damping         CNVDamp         .... on
   Fraction old density DampFac         ....    0.7000
   Max. Damping (<1)    DampMax         ....    0.9800
   Min. Damping (>=0)   DampMin         ....    0.0000
   Turn off err/grad.   DampErr         ....    0.1000
 Fernandez-Rico         CNVRico         .... off

SCF Procedure:
 Maximum # iterations   MaxIter         ....   125
 SCF integral mode      SCFMode         .... Direct
   Integral package                     .... LIBINT
 Reset frequency        DirectResetFreq ....    20
 Integral Threshold     Thresh          ....  1.000e-10 Eh
 Primitive CutOff       TCut            ....  1.000e-11 Eh

Convergence Tolerance:
 Convergence Check Mode ConvCheckMode   .... Total+1el-Energy
 Convergence forced     ConvForced      .... 0
 Energy Change          TolE            ....  1.000e-06 Eh
 1-El. energy change                    ....  1.000e-03 Eh
 DIIS Error             TolErr          ....  1.000e-06


Diagonalization of the overlap matrix:
Smallest eigenvalue                        ... 1.744e-04
Time for diagonalization                   ...    0.230 sec
Threshold for overlap eigenvalues          ... 1.000e-08
Number of eigenvalues below threshold      ... 0
Time for construction of square roots      ...    0.334 sec
Total time needed                          ...    0.568 sec

-------------------
DFT GRID GENERATION
-------------------

General Integration Accuracy     IntAcc      ...  4.340
Radial Grid Type                 RadialGrid  ... Gauss-Chebyshev
Angular Grid (max. acc.)         AngularGrid ... Lebedev-110
Angular grid pruning method      GridPruning ... 3 (G Style)
Weight generation scheme         WeightScheme... Becke
Basis function cutoff            BFCut       ...    1.0000e-10
Integration weight cutoff        WCut        ...    1.0000e-14
Grids for H and He will be reduced by one unit

# of grid points (after initial pruning)     ...  74998 (   0.0 sec)
# of grid points (after weights+screening)   ...  61989 (   0.1 sec)
nearest neighbour list constructed           ...    0.0 sec
Grid point re-assignment to atoms done       ...    0.0 sec
Grid point division into batches done        ...    0.1 sec
Reduced shell lists constructed in    0.1 sec

Total number of grid points                  ...    61989
Total number of batches                      ...      994
Average number of points per batch           ...       62
Average number of grid points per atom       ...      969
Average number of shells per batch           ...   224.87 (52.05%)
Average number of basis functions per batch  ...   450.73 (61.91%)
Average number of large shells per batch     ...   169.40 (75.33%)
Average number of large basis fcns per batch ...   336.87 (74.74%)
Maximum spatial batch extension              ...   2.42,  2.38,  2.29 au
Average spatial batch extension              ...   0.03,  0.02,  0.03 au

Time for grid setup =    0.494 sec

------------------------------
INITIAL GUESS: MODEL POTENTIAL
------------------------------
Loading Hartree-Fock densities                     ... done
Calculating cut-offs                               ... done
Setting up the integral package                    ... done
Initializing the effective Hamiltonian             ... done
Starting the Coulomb interaction                   ... done (   0.1 sec)
Reading the grid                                   ... done
Mapping shells                                     ... done
Starting the XC term evaluation                    ... done (   0.2 sec)
  promolecular density results
     # of electrons  =    205.185177663
     EX              =   -156.165875079
     EC              =     -7.175375995
     EX+EC           =   -163.341251074
Transforming the Hamiltonian                       ... done (   0.1 sec)
Diagonalizing the Hamiltonian                      ... done (   0.1 sec)
Back transforming the eigenvectors                 ... done (   0.1 sec)
Now organizing SCF variables                       ... done
                      ------------------
                      INITIAL GUESS DONE (   1.4 sec)
                      ------------------
--------------------
COSX GRID GENERATION
--------------------

General Integration Accuracy     IntAcc      ...  3.340
Radial Grid Type                 RadialGrid  ... Gauss-Chebyshev
Angular Grid (max. acc.)         AngularGrid ... Lebedev-50
Angular grid pruning method      GridPruning ... 3 (G Style)
Weight generation scheme         WeightScheme... Becke
Basis function cutoff            BFCut       ...    1.0000e-10
Integration weight cutoff        WCut        ...    1.0000e-14
Grids for H and He will be reduced by one unit

# of grid points (after initial pruning)     ...  27746 (   0.0 sec)
# of grid points (after weights+screening)   ...  23098 (   0.0 sec)
nearest neighbour list constructed           ...    0.0 sec
Grid point re-assignment to atoms done       ...    0.0 sec
Grid point division into batches done        ...    0.0 sec
Reduced shell lists constructed in    0.0 sec

Total number of grid points                  ...    23098
Total number of batches                      ...      385
Average number of points per batch           ...       59
Average number of grid points per atom       ...      361
Average number of shells per batch           ...   222.29 (51.46%)
Average number of basis functions per batch  ...   444.86 (61.11%)
Average number of large shells per batch     ...   164.29 (73.91%)
Average number of large basis fcns per batch ...   329.14 (73.99%)
Maximum spatial batch extension              ...   3.21,  3.01,  2.92 au
Average spatial batch extension              ...   0.04,  0.04,  0.04 au

Overlap Fitting                  UseSFitting ... on
Constructing numerical overlap ... done (      0.0 sec)
Inverting numerical overlap    ... done (      0.0 sec)
Obtaining analytic overlap     ... done (      0.1 sec)
Final contraction and storage  ... done (      0.1 sec)


General Integration Accuracy     IntAcc      ...  3.670
Radial Grid Type                 RadialGrid  ... Gauss-Chebyshev
Angular Grid (max. acc.)         AngularGrid ... Lebedev-50
Angular grid pruning method      GridPruning ... 3 (G Style)
Weight generation scheme         WeightScheme... Becke
Basis function cutoff            BFCut       ...    1.0000e-10
Integration weight cutoff        WCut        ...    1.0000e-14
Grids for H and He will be reduced by one unit

# of grid points (after initial pruning)     ...  35464 (   0.0 sec)
# of grid points (after weights+screening)   ...  29327 (   0.0 sec)
nearest neighbour list constructed           ...    0.0 sec
Grid point re-assignment to atoms done       ...    0.0 sec
Grid point division into batches done        ...    0.0 sec
Reduced shell lists constructed in    0.0 sec

Total number of grid points                  ...    29327
Total number of batches                      ...      488
Average number of points per batch           ...       60
Average number of grid points per atom       ...      458
Average number of shells per batch           ...   220.50 (51.04%)
Average number of basis functions per batch  ...   441.50 (60.65%)
Average number of large shells per batch     ...   162.00 (73.47%)
Average number of large basis fcns per batch ...   324.75 (73.56%)
Maximum spatial batch extension              ...   3.03,  2.97,  2.73 au
Average spatial batch extension              ...   0.03,  0.04,  0.03 au

Overlap Fitting                  UseSFitting ... on
Constructing numerical overlap ... done (      0.0 sec)
Inverting numerical overlap    ... done (      0.0 sec)
Obtaining analytic overlap     ... done (      0.0 sec)
Final contraction and storage  ... done (      0.1 sec)


General Integration Accuracy     IntAcc      ...  4.010
Radial Grid Type                 RadialGrid  ... Gauss-Chebyshev
Angular Grid (max. acc.)         AngularGrid ... Lebedev-110
Angular grid pruning method      GridPruning ... 3 (G Style)
Weight generation scheme         WeightScheme... Becke
Basis function cutoff            BFCut       ...    1.0000e-10
Integration weight cutoff        WCut        ...    1.0000e-14
Grids for H and He will be reduced by one unit

# of grid points (after initial pruning)     ...  65152 (   0.0 sec)
# of grid points (after weights+screening)   ...  54184 (   0.1 sec)
nearest neighbour list constructed           ...    0.0 sec
Grid point re-assignment to atoms done       ...    0.0 sec
Grid point division into batches done        ...    0.0 sec
Reduced shell lists constructed in    0.1 sec

Total number of grid points                  ...    54184
Total number of batches                      ...      880
Average number of points per batch           ...       61
Average number of grid points per atom       ...      847
Average number of shells per batch           ...   228.57 (52.91%)
Average number of basis functions per batch  ...   459.14 (63.07%)
Average number of large shells per batch     ...   168.00 (73.50%)
Average number of large basis fcns per batch ...   334.71 (72.90%)
Maximum spatial batch extension              ...   2.60,  2.43,  2.60 au
Average spatial batch extension              ...   0.03,  0.03,  0.03 au

Overlap Fitting                  UseSFitting ... on
Constructing numerical overlap ... done (      0.1 sec)
Inverting numerical overlap    ... done (      0.0 sec)
Obtaining analytic overlap     ... done (      0.0 sec)
Final contraction and storage  ... done (      0.1 sec)

Time for X-Grid setup             =    1.819 sec
--------------
SCF ITERATIONS
--------------
ITER       Energy         Delta-E        Max-DP      RMS-DP      [F,P]     Damp
               ***  Starting incremental Fock matrix formation  ***
  0  -1102.3816215309   0.000000000000 8.13373234  0.02150569  0.1268492 0.7000
  1  -1102.8060092155  -0.424387684557 4.81300608  0.01297730  0.0435403 0.7000
                               ***Turning on DIIS***
  2  -1102.8951563402  -0.089147124698 0.92674911  0.00384229  0.0326341 0.0000
  3  -1103.1478337838  -0.252677443660 4.51591667  0.01160376  0.0235628 0.0000
  4  -1103.1811185925  -0.033284808668 1.43616385  0.00369059  0.0194413 0.0000
  5  -1103.1903967551  -0.009278162625 0.62436674  0.00160309  0.0055840 0.0000
  6  -1103.1917225962  -0.001325841096 0.41774106  0.00108634  0.0016011 0.0000
  7  -1103.1919230361  -0.000200439874 0.24718108  0.00063766  0.0018671 0.0000
  8  -1103.1920271645  -0.000104128427 0.50472946  0.00130920  0.0003695 0.0000
  9  -1103.1920910970  -0.000063932453 0.10486067  0.00031715  0.0004639 0.0000
 10  -1103.1920975068  -0.000006409822 0.08429870  0.00024302  0.0003221 0.0000
 11  -1103.1921025088  -0.000005001989 0.02554649  0.00007637  0.0002084 0.0000
 12  -1103.1921048088  -0.000002299962 0.00268973  0.00000857  0.0000631 0.0000
                 **** Energy Check signals convergence ****

               *****************************************************
               *                     SUCCESS                       *
               *           SCF CONVERGED AFTER  13 CYCLES          *
               *****************************************************

Setting up the final grid:

General Integration Accuracy     IntAcc      ...  4.670
Radial Grid Type                 RadialGrid  ... Gauss-Chebyshev
Angular Grid (max. acc.)         AngularGrid ... Lebedev-302
Angular grid pruning method      GridPruning ... 3 (G Style)
Weight generation scheme         WeightScheme... Becke
Basis function cutoff            BFCut       ...    1.0000e-10
Integration weight cutoff        WCut        ...    1.0000e-14
Grids for H and He will be reduced by one unit

# of grid points (after initial pruning)     ... 296120 (   0.0 sec)
# of grid points (after weights+screening)   ... 239339 (   0.2 sec)
nearest neighbour list constructed           ...    0.0 sec
Grid point re-assignment to atoms done       ...    0.1 sec
Grid point division into batches done        ...    0.8 sec
Reduced shell lists constructed in    0.9 sec

Total number of grid points                  ...   239339
Total number of batches                      ...     3766
Average number of points per batch           ...       63
Average number of grid points per atom       ...     3740
Average number of shells per batch           ...   226.96 (52.54%)
Average number of basis functions per batch  ...   457.11 (62.79%)
Average number of large shells per batch     ...   167.91 (73.98%)
Average number of large basis fcns per batch ...   332.65 (72.77%)
Maximum spatial batch extension              ...   1.70,  1.65,  1.70 au
Average spatial batch extension              ...   0.02,  0.02,  0.02 au

Final grid set up in    1.3 sec
Final integration                            ... done (   0.9 sec)
Change in XC energy                          ...     0.022708224
Integrated number of electrons               ...   206.008472780
Previous integrated no of electrons          ...   206.136492947

----------------
TOTAL SCF ENERGY
----------------

Total Energy       :        -1103.16939674 Eh          -30018.76541 eV

Components:
Nuclear Repulsion  :         3308.01822439 Eh           90015.75220 eV
Electronic Energy  :        -4411.18762113 Eh         -120034.51761 eV
One Electron Energy:        -8102.90985939 Eh         -220491.38684 eV
Two Electron Energy:         3691.72223825 Eh          100456.86923 eV

Virial components:
Potential Energy   :        -2203.33185984 Eh          -59955.70800 eV
Kinetic Energy     :         1100.16246310 Eh           29936.94259 eV
Virial Ratio       :            2.00273317


DFT components:
N(Alpha)           :      104.004485146340 electrons
N(Beta)            :      102.003987634024 electrons
N(Total)           :      206.008472780363 electrons
E(X)               :     -159.727619972860 Eh       
E(C)               :       -7.078695502643 Eh       
E(XC)              :     -166.806315475503 Eh       
DFET-embed. en.    :        0.000000000000 Eh       

---------------
SCF CONVERGENCE
---------------

  Last Energy change         ...   -1.6040e-07  Tolerance :   1.0000e-06
  Last MAX-Density change    ...    6.9431e-04  Tolerance :   1.0000e-05
  Last RMS-Density change    ...    2.1336e-06  Tolerance :   1.0000e-06
  Last DIIS Error            ...    5.6413e-05  Tolerance :   1.0000e-06

             **** THE GBW FILE WAS UPDATED (epr.gbw) ****
             **** DENSITY FILE WAS UPDATED (epr.scfp) ****
             **** ENERGY FILE WAS UPDATED (epr.en.tmp) ****
----------------------
UHF SPIN CONTAMINATION
----------------------

Warning: in a DFT calculation there is little theoretical justification to 
         calculate <S**2> as in Hartree-Fock theory. We will do it anyways
         but you should keep in mind that the values have only limited relevance

Expectation value of <S**2>     :     2.010895
Ideal value S*(S+1) for S=1.0   :     2.000000
Deviation                       :     0.010895

             **** THE GBW FILE WAS UPDATED (epr.gbw) ****
             **** DENSITY FILE WAS UPDATED (epr.scfp) ****
----------------
ORBITAL ENERGIES
----------------
                 SPIN UP ORBITALS
  NO   OCC          E(Eh)            E(eV) 
   0   1.0000     -13.856672      -377.0592 
   1   1.0000      -9.803258      -266.7602 
   2   1.0000      -9.803227      -266.7594 
   3   1.0000      -9.803226      -266.7593 
   4   1.0000      -9.765085      -265.7215 
   5   1.0000      -9.765024      -265.7198 
   6   1.0000      -9.765023      -265.7198 
   7   1.0000      -9.764961      -265.7181 
   8   1.0000      -9.764901      -265.7165 
   9   1.0000      -9.764896      -265.7163 
  10   1.0000      -9.757919      -265.5265 
  11   1.0000      -9.757876      -265.5253 
  12   1.0000      -9.757875      -265.5253 
  13   1.0000      -9.751086      -265.3405 
  14   1.0000      -9.751037      -265.3392 
  15   1.0000      -9.751020      -265.3387 
  16   1.0000      -9.750428      -265.3226 
  17   1.0000      -9.750378      -265.3213 
  18   1.0000      -9.750363      -265.3209 
  19   1.0000      -9.741637      -265.0834 
  20   1.0000      -9.741289      -265.0739 
  21   1.0000      -9.741283      -265.0738 
  22   1.0000      -9.738200      -264.9899 
  23   1.0000      -9.738188      -264.9896 
  24   1.0000      -9.738188      -264.9896 
  25   1.0000      -9.737767      -264.9781 
  26   1.0000      -9.737759      -264.9779 
  27   1.0000      -9.737654      -264.9750 
  28   1.0000      -0.731145       -19.8955 
  29   1.0000      -0.669538       -18.2191 
  30   1.0000      -0.654191       -17.8014 
  31   1.0000      -0.654177       -17.8011 
  32   1.0000      -0.611077       -16.6282 
  33   1.0000      -0.599625       -16.3166 
  34   1.0000      -0.599467       -16.3123 
  35   1.0000      -0.584218       -15.8974 
  36   1.0000      -0.584203       -15.8970 
  37   1.0000      -0.547056       -14.8861 
  38   1.0000      -0.523034       -14.2325 
  39   1.0000      -0.522992       -14.2313 
  40   1.0000      -0.520465       -14.1626 
  41   1.0000      -0.517371       -14.0784 
  42   1.0000      -0.517192       -14.0735 
  43   1.0000      -0.503587       -13.7033 
  44   1.0000      -0.445966       -12.1353 
  45   1.0000      -0.445888       -12.1332 
  46   1.0000      -0.425291       -11.5728 
  47   1.0000      -0.406715       -11.0673 
  48   1.0000      -0.406706       -11.0670 
  49   1.0000      -0.401738       -10.9318 
  50   1.0000      -0.399298       -10.8655 
  51   1.0000      -0.385838       -10.4992 
  52   1.0000      -0.385768       -10.4973 
  53   1.0000      -0.360148        -9.8001 
  54   1.0000      -0.359420        -9.7803 
  55   1.0000      -0.359368        -9.7789 
  56   1.0000      -0.348439        -9.4815 
  57   1.0000      -0.314464        -8.5570 
  58   1.0000      -0.310478        -8.4485 
  59   1.0000      -0.310430        -8.4472 
  60   1.0000      -0.302971        -8.2443 
  61   1.0000      -0.302926        -8.2430 
  62   1.0000      -0.283772        -7.7218 
  63   1.0000      -0.280684        -7.6378 
  64   1.0000      -0.280626        -7.6362 
  65   1.0000      -0.277314        -7.5461 
  66   1.0000      -0.277311        -7.5460 
  67   1.0000      -0.244412        -6.6508 
  68   1.0000      -0.244406        -6.6506 
  69   1.0000      -0.239787        -6.5249 
  70   1.0000      -0.232842        -6.3360 
  71   1.0000      -0.229909        -6.2561 
  72   1.0000      -0.227936        -6.2025 
  73   1.0000      -0.227907        -6.2017 
  74   1.0000      -0.213949        -5.8219 
  75   1.0000      -0.213885        -5.8201 
  76   1.0000      -0.211666        -5.7597 
  77   1.0000      -0.198654        -5.4057 
  78   1.0000      -0.192254        -5.2315 
  79   1.0000      -0.192250        -5.2314 
  80   1.0000      -0.180559        -4.9133 
  81   1.0000      -0.180555        -4.9132 
  82   1.0000      -0.173023        -4.7082 
  83   1.0000      -0.168098        -4.5742 
  84   1.0000      -0.168073        -4.5735 
  85   1.0000      -0.162394        -4.4190 
  86   1.0000      -0.160371        -4.3639 
  87   1.0000      -0.157614        -4.2889 
  88   1.0000      -0.157607        -4.2887 
  89   1.0000      -0.148502        -4.0410 
  90   1.0000      -0.148433        -4.0391 
  91   1.0000      -0.136729        -3.7206 
  92   1.0000      -0.121430        -3.3043 
  93   1.0000      -0.121423        -3.3041 
  94   1.0000      -0.097043        -2.6407 
  95   1.0000      -0.097039        -2.6406 
  96   1.0000      -0.094060        -2.5595 
  97   1.0000      -0.078923        -2.1476 
  98   1.0000      -0.060276        -1.6402 
  99   1.0000      -0.058044        -1.5794 
 100   1.0000      -0.057724        -1.5708 
 101   1.0000       0.000611         0.0166 
 102   1.0000       0.045042         1.2257 
 103   1.0000       0.045048         1.2258 
 104   0.0000       0.095649         2.6027 
 105   0.0000       0.112179         3.0525 
 106   0.0000       0.115806         3.1512 
 107   0.0000       0.115822         3.1517 
 108   0.0000       0.122563         3.3351 
 109   0.0000       0.124555         3.3893 
 110   0.0000       0.124560         3.3894 
 111   0.0000       0.125198         3.4068 
 112   0.0000       0.125209         3.4071 
 113   0.0000       0.139820         3.8047 
 114   0.0000       0.139843         3.8053 
 115   0.0000       0.139906         3.8070 
 116   0.0000       0.147454         4.0124 
 117   0.0000       0.150848         4.1048 
 118   0.0000       0.150962         4.1079 
 119   0.0000       0.150964         4.1079 
 120   0.0000       0.178680         4.8621 
 121   0.0000       0.178704         4.8628 
 122   0.0000       0.181270         4.9326 
 123   0.0000       0.181863         4.9487 
 124   0.0000       0.183211         4.9854 
 125   0.0000       0.183224         4.9858 
 126   0.0000       0.189850         5.1661 
 127   0.0000       0.189861         5.1664 
 128   0.0000       0.191902         5.2219 
 129   0.0000       0.225929         6.1479 
 130   0.0000       0.225980         6.1492 
 131   0.0000       0.226866         6.1733 
 132   0.0000       0.236460         6.4344 
 133   0.0000       0.244285         6.6473 
 134   0.0000       0.248523         6.7627 
 135   0.0000       0.248525         6.7627 
 136   0.0000       0.250007         6.8030 
 137   0.0000       0.250011         6.8031 
 138   0.0000       0.274335         7.4650 
 139   0.0000       0.275188         7.4882 
 140   0.0000       0.275258         7.4901 
 141   0.0000       0.282164         7.6781 
 142   0.0000       0.282221         7.6796 
 143   0.0000       0.288977         7.8635 
 144   0.0000       0.290525         7.9056 
 145   0.0000       0.290530         7.9057 
 146   0.0000       0.294794         8.0217 
 147   0.0000       0.297057         8.0833 
 148   0.0000       0.297174         8.0865 
 149   0.0000       0.299414         8.1475 
 150   0.0000       0.307575         8.3695 
 151   0.0000       0.307611         8.3705 
 152   0.0000       0.310356         8.4452 
 153   0.0000       0.310378         8.4458 
 154   0.0000       0.311806         8.4847 
 155   0.0000       0.325502         8.8573 
 156   0.0000       0.330901         9.0043 
 157   0.0000       0.330958         9.0058 
 158   0.0000       0.340506         9.2656 
 159   0.0000       0.341908         9.3038 
 160   0.0000       0.341921         9.3041 
 161   0.0000       0.354352         9.6424 
 162   0.0000       0.354403         9.6438 
 163   0.0000       0.354407         9.6439 
 164   0.0000       0.364819         9.9272 
 165   0.0000       0.371370        10.1055 
 166   0.0000       0.371401        10.1063 
 167   0.0000       0.371939        10.1210 
 168   0.0000       0.379508        10.3269 
 169   0.0000       0.381330        10.3765 
 170   0.0000       0.381393        10.3782 
 171   0.0000       0.386340        10.5128 
 172   0.0000       0.386524        10.5179 
 173   0.0000       0.386569        10.5191 
 174   0.0000       0.391016        10.6401 
 175   0.0000       0.392725        10.6866 
 176   0.0000       0.392732        10.6868 
 177   0.0000       0.396926        10.8009 
 178   0.0000       0.396931        10.8010 
 179   0.0000       0.411358        11.1936 
 180   0.0000       0.411418        11.1953 
 181   0.0000       0.411888        11.2080 
 182   0.0000       0.426375        11.6023 
 183   0.0000       0.427070        11.6212 
 184   0.0000       0.427298        11.6274 
 185   0.0000       0.427457        11.6317 
 186   0.0000       0.429037        11.6747 
 187   0.0000       0.429073        11.6757 
 188   0.0000       0.430166        11.7054 
 189   0.0000       0.430172        11.7056 
 190   0.0000       0.434766        11.8306 
 191   0.0000       0.437301        11.8996 
 192   0.0000       0.437319        11.9001 
 193   0.0000       0.450101        12.2479 
 194   0.0000       0.459055        12.4915 
 195   0.0000       0.459055        12.4915 
 196   0.0000       0.465827        12.6758 
 197   0.0000       0.468433        12.7467 
 198   0.0000       0.470317        12.7980 
 199   0.0000       0.470318        12.7980 
 200   0.0000       0.479396        13.0450 
 201   0.0000       0.479461        13.0468 
 202   0.0000       0.496118        13.5001 
 203   0.0000       0.505542        13.7565 
 204   0.0000       0.505550        13.7567 
 205   0.0000       0.509727        13.8704 
 206   0.0000       0.514121        13.9899 
 207   0.0000       0.514152        13.9908 
 208   0.0000       0.523747        14.2519 
 209   0.0000       0.532091        14.4789 
 210   0.0000       0.534434        14.5427 
 211   0.0000       0.534504        14.5446 
 212   0.0000       0.538190        14.6449 
 213   0.0000       0.546045        14.8586 
 214   0.0000       0.546063        14.8591 
 215   0.0000       0.547769        14.9056 
 216   0.0000       0.554606        15.0916 
 217   0.0000       0.554660        15.0931 
 218   0.0000       0.554836        15.0979 
 219   0.0000       0.574085        15.6217 
 220   0.0000       0.578382        15.7386 
 221   0.0000       0.578402        15.7391 
 222   0.0000       0.588575        16.0159 
 223   0.0000       0.588643        16.0178 
 224   0.0000       0.598631        16.2896 
 225   0.0000       0.602678        16.3997 
 226   0.0000       0.602682        16.3998 
 227   0.0000       0.605530        16.4773 
 228   0.0000       0.616292        16.7702 
 229   0.0000       0.616302        16.7704 
 230   0.0000       0.618973        16.8431 
 231   0.0000       0.620637        16.8884 
 232   0.0000       0.620836        16.8938 
 233   0.0000       0.622329        16.9344 
 234   0.0000       0.624370        16.9900 
 235   0.0000       0.624456        16.9923 
 236   0.0000       0.631294        17.1784 
 237   0.0000       0.641900        17.4670 
 238   0.0000       0.641921        17.4675 
 239   0.0000       0.643381        17.5073 
 240   0.0000       0.654946        17.8220 
 241   0.0000       0.655055        17.8250 
 242   0.0000       0.662272        18.0213 
 243   0.0000       0.675416        18.3790 
 244   0.0000       0.694425        18.8963 
 245   0.0000       0.694453        18.8970 
 246   0.0000       0.699487        19.0340 
 247   0.0000       0.699528        19.0351 
 248   0.0000       0.705526        19.1983 
 249   0.0000       0.710727        19.3399 
 250   0.0000       0.711259        19.3543 
 251   0.0000       0.711359        19.3571 
 252   0.0000       0.724947        19.7268 
 253   0.0000       0.732900        19.9432 
 254   0.0000       0.735458        20.0128 
 255   0.0000       0.735521        20.0146 
 256   0.0000       0.740848        20.1595 
 257   0.0000       0.740920        20.1614 
 258   0.0000       0.754855        20.5406 
 259   0.0000       0.754999        20.5446 
 260   0.0000       0.757466        20.6117 
 261   0.0000       0.757597        20.6153 
 262   0.0000       0.757690        20.6178 
 263   0.0000       0.775196        21.0941 
 264   0.0000       0.806591        21.9484 
 265   0.0000       0.821295        22.3486 
 266   0.0000       0.850127        23.1331 
 267   0.0000       0.850254        23.1366 
 268   0.0000       0.854083        23.2408 
 269   0.0000       0.854168        23.2431 
 270   0.0000       0.891831        24.2680 
 271   0.0000       0.895931        24.3795 
 272   0.0000       0.905151        24.6304 
 273   0.0000       0.905532        24.6408 
 274   0.0000       0.910880        24.7863 
 275   0.0000       0.921354        25.0713 
 276   0.0000       0.921565        25.0771 
 277   0.0000       0.942152        25.6372 
 278   0.0000       0.949951        25.8495 
 279   0.0000       0.950145        25.8548 
 280   0.0000       0.955107        25.9898 
 281   0.0000       0.955877        26.0107 
 282   0.0000       0.956209        26.0198 
 283   0.0000       0.957867        26.0649 
 284   0.0000       0.964513        26.2457 
 285   0.0000       0.964746        26.2521 
 286   0.0000       0.983386        26.7593 
 287   0.0000       1.007718        27.4214 
 288   0.0000       1.009645        27.4738 
 289   0.0000       1.009765        27.4771 
 290   0.0000       1.013788        27.5866 
 291   0.0000       1.014426        27.6039 
 292   0.0000       1.014553        27.6074 
 293   0.0000       1.029070        28.0024 
 294   0.0000       1.029321        28.0092 
 295   0.0000       1.038633        28.2626 
 296   0.0000       1.038732        28.2653 
 297   0.0000       1.038855        28.2687 
 298   0.0000       1.045311        28.4444 
 299   0.0000       1.045337        28.4451 
 300   0.0000       1.052393        28.6371 
 301   0.0000       1.059314        28.8254 
 302   0.0000       1.059461        28.8294 
 303   0.0000       1.059820        28.8392 
 304   0.0000       1.065870        29.0038 
 305   0.0000       1.065888        29.0043 
 306   0.0000       1.067763        29.0553 
 307   0.0000       1.086628        29.5686 
 308   0.0000       1.094892        29.7935 
 309   0.0000       1.094965        29.7955 
 310   0.0000       1.122442        30.5432 
 311   0.0000       1.130121        30.7522 
 312   0.0000       1.130228        30.7551 
 313   0.0000       1.130841        30.7718 
 314   0.0000       1.134716        30.8772 
 315   0.0000       1.134946        30.8835 
 316   0.0000       1.138988        30.9934 
 317   0.0000       1.139161        30.9982 
 318   0.0000       1.139357        31.0035 
 319   0.0000       1.143178        31.1075 
 320   0.0000       1.143374        31.1128 
 321   0.0000       1.145879        31.1810 
 322   0.0000       1.145939        31.1826 
 323   0.0000       1.150383        31.3035 
 324   0.0000       1.151181        31.3252 
 325   0.0000       1.152666        31.3656 
 326   0.0000       1.152903        31.3721 
 327   0.0000       1.158619        31.5276 
 328   0.0000       1.158798        31.5325 
 329   0.0000       1.167921        31.7807 
 330   0.0000       1.203257        32.7423 
 331   0.0000       1.203834        32.7580 
 332   0.0000       1.204053        32.7640 
 333   0.0000       1.204066        32.7643 
 334   0.0000       1.207472        32.8570 
 335   0.0000       1.207535        32.8587 
 336   0.0000       1.212651        32.9979 
 337   0.0000       1.213433        33.0192 
 338   0.0000       1.213675        33.0258 
 339   0.0000       1.213811        33.0295 
 340   0.0000       1.233687        33.5703 
 341   0.0000       1.233703        33.5708 
 342   0.0000       1.246380        33.9157 
 343   0.0000       1.267339        34.4860 
 344   0.0000       1.276833        34.7444 
 345   0.0000       1.276892        34.7460 
 346   0.0000       1.280371        34.8407 
 347   0.0000       1.287269        35.0284 
 348   0.0000       1.292590        35.1731 
 349   0.0000       1.292734        35.1771 
 350   0.0000       1.305288        35.5187 
 351   0.0000       1.305459        35.5234 
 352   0.0000       1.314580        35.7715 
 353   0.0000       1.326160        36.0866 
 354   0.0000       1.327955        36.1355 
 355   0.0000       1.328231        36.1430 
 356   0.0000       1.367322        37.2067 
 357   0.0000       1.367363        37.2079 
 358   0.0000       1.380571        37.5672 
 359   0.0000       1.384463        37.6732 
 360   0.0000       1.384483        37.6737 
 361   0.0000       1.400782        38.1172 
 362   0.0000       1.402894        38.1747 
 363   0.0000       1.402942        38.1760 
 364   0.0000       1.410876        38.3919 
 365   0.0000       1.427473        38.8435 
 366   0.0000       1.427485        38.8439 
 367   0.0000       1.437144        39.1067 
 368   0.0000       1.440227        39.1906 
 369   0.0000       1.440257        39.1914 
 370   0.0000       1.453168        39.5427 
 371   0.0000       1.453186        39.5432 
 372   0.0000       1.462466        39.7957 
 373   0.0000       1.483304        40.3627 
 374   0.0000       1.486074        40.4381 
 375   0.0000       1.486136        40.4398 
 376   0.0000       1.495377        40.6913 
 377   0.0000       1.496488        40.7215 
 378   0.0000       1.496714        40.7277 
 379   0.0000       1.504897        40.9503 
 380   0.0000       1.505915        40.9780 
 381   0.0000       1.506092        40.9828 
 382   0.0000       1.510458        41.1016 
 383   0.0000       1.517106        41.2825 
 384   0.0000       1.517137        41.2834 
 385   0.0000       1.529323        41.6150 
 386   0.0000       1.532056        41.6894 
 387   0.0000       1.532327        41.6967 
 388   0.0000       1.536652        41.8144 
 389   0.0000       1.537421        41.8354 
 390   0.0000       1.537501        41.8375 
 391   0.0000       1.552692        42.2509 
 392   0.0000       1.564558        42.5738 
 393   0.0000       1.564665        42.5767 
 394   0.0000       1.565281        42.5935 
 395   0.0000       1.570050        42.7232 
 396   0.0000       1.570183        42.7269 
 397   0.0000       1.581927        43.0464 
 398   0.0000       1.597630        43.4737 
 399   0.0000       1.597739        43.4767 
 400   0.0000       1.610205        43.8159 
 401   0.0000       1.614684        43.9378 
 402   0.0000       1.614819        43.9415 
 403   0.0000       1.618653        44.0458 
 404   0.0000       1.640468        44.6394 
 405   0.0000       1.644753        44.7560 
 406   0.0000       1.650096        44.9014 
 407   0.0000       1.650225        44.9049 
 408   0.0000       1.661745        45.2184 
 409   0.0000       1.661870        45.2218 
 410   0.0000       1.667108        45.3643 
 411   0.0000       1.667181        45.3663 
 412   0.0000       1.685100        45.8539 
 413   0.0000       1.685315        45.8598 
 414   0.0000       1.686702        45.8975 
 415   0.0000       1.686776        45.8995 
 416   0.0000       1.686948        45.9042 
 417   0.0000       1.706116        46.4258 
 418   0.0000       1.730207        47.0813 
 419   0.0000       1.730317        47.0843 
 420   0.0000       1.733910        47.1821 
 421   0.0000       1.742802        47.4241 
 422   0.0000       1.742870        47.4259 
 423   0.0000       1.747749        47.5587 
 424   0.0000       1.751329        47.6561 
 425   0.0000       1.751761        47.6678 
 426   0.0000       1.762199        47.9519 
 427   0.0000       1.762270        47.9538 
 428   0.0000       1.779936        48.4345 
 429   0.0000       1.798688        48.9448 
 430   0.0000       1.799846        48.9763 
 431   0.0000       1.805231        49.1228 
 432   0.0000       1.805262        49.1237 
 433   0.0000       1.810428        49.2643 
 434   0.0000       1.810719        49.2722 
 435   0.0000       1.817082        49.4453 
 436   0.0000       1.817162        49.4475 
 437   0.0000       1.823001        49.6064 
 438   0.0000       1.830190        49.8020 
 439   0.0000       1.830464        49.8094 
 440   0.0000       1.833367        49.8885 
 441   0.0000       1.839022        50.0423 
 442   0.0000       1.839036        50.0427 
 443   0.0000       1.849528        50.3282 
 444   0.0000       1.853731        50.4426 
 445   0.0000       1.853790        50.4442 
 446   0.0000       1.854990        50.4769 
 447   0.0000       1.856146        50.5083 
 448   0.0000       1.856181        50.5093 
 449   0.0000       1.867435        50.8155 
 450   0.0000       1.903438        51.7952 
 451   0.0000       1.903995        51.8103 
 452   0.0000       1.904029        51.8113 
 453   0.0000       1.924087        52.3571 
 454   0.0000       1.928482        52.4767 
 455   0.0000       1.930697        52.5369 
 456   0.0000       1.937225        52.7146 
 457   0.0000       1.937417        52.7198 
 458   0.0000       1.942076        52.8466 
 459   0.0000       1.942301        52.8527 
 460   0.0000       1.948440        53.0197 
 461   0.0000       1.948480        53.0208 
 462   0.0000       1.965153        53.4745 
 463   0.0000       1.966125        53.5010 
 464   0.0000       1.969194        53.5845 
 465   0.0000       1.969251        53.5860 
 466   0.0000       1.990716        54.1701 
 467   0.0000       1.995714        54.3061 
 468   0.0000       1.995741        54.3069 
 469   0.0000       2.005027        54.5595 
 470   0.0000       2.005094        54.5614 
 471   0.0000       2.013077        54.7786 
 472   0.0000       2.014738        54.8238 
 473   0.0000       2.014986        54.8306 
 474   0.0000       2.022880        55.0454 
 475   0.0000       2.031751        55.2868 
 476   0.0000       2.032070        55.2954 
 477   0.0000       2.038079        55.4589 
 478   0.0000       2.038142        55.4607 
 479   0.0000       2.042056        55.5672 
 480   0.0000       2.050346        55.7927 
 481   0.0000       2.050620        55.8002 
 482   0.0000       2.066732        56.2386 
 483   0.0000       2.080029        56.6005 
 484   0.0000       2.082057        56.6556 
 485   0.0000       2.085690        56.7545 
 486   0.0000       2.085753        56.7562 
 487   0.0000       2.102097        57.2010 
 488   0.0000       2.102339        57.2076 
 489   0.0000       2.109788        57.4102 
 490   0.0000       2.116833        57.6020 
 491   0.0000       2.116865        57.6028 
 492   0.0000       2.123393        57.7805 
 493   0.0000       2.124715        57.8164 
 494   0.0000       2.124794        57.8186 
 495   0.0000       2.148766        58.4709 
 496   0.0000       2.161322        58.8126 
 497   0.0000       2.177100        59.2419 
 498   0.0000       2.177521        59.2534 
 499   0.0000       2.191617        59.6369 
 500   0.0000       2.205538        60.0157 
 501   0.0000       2.211661        60.1824 
 502   0.0000       2.211702        60.1835 
 503   0.0000       2.222636        60.4810 
 504   0.0000       2.223395        60.5016 
 505   0.0000       2.223455        60.5033 
 506   0.0000       2.227302        60.6080 
 507   0.0000       2.227668        60.6179 
 508   0.0000       2.248598        61.1875 
 509   0.0000       2.248857        61.1945 
 510   0.0000       2.272346        61.8337 
 511   0.0000       2.272422        61.8357 
 512   0.0000       2.289345        62.2963 
 513   0.0000       2.293539        62.4104 
 514   0.0000       2.305976        62.7488 
 515   0.0000       2.306258        62.7565 
 516   0.0000       2.311782        62.9068 
 517   0.0000       2.323192        63.2173 
 518   0.0000       2.346091        63.8404 
 519   0.0000       2.346199        63.8433 
 520   0.0000       2.356683        64.1286 
 521   0.0000       2.357531        64.1517 
 522   0.0000       2.357753        64.1577 
 523   0.0000       2.392409        65.1008 
 524   0.0000       2.392500        65.1032 
 525   0.0000       2.414405        65.6993 
 526   0.0000       2.420558        65.8667 
 527   0.0000       2.420694        65.8704 
 528   0.0000       2.423897        65.9576 
 529   0.0000       2.433221        66.2113 
 530   0.0000       2.433388        66.2159 
 531   0.0000       2.444714        66.5241 
 532   0.0000       2.454757        66.7973 
 533   0.0000       2.454923        66.8018 
 534   0.0000       2.465905        67.1007 
 535   0.0000       2.465937        67.1015 
 536   0.0000       2.471460        67.2518 
 537   0.0000       2.477143        67.4065 
 538   0.0000       2.509006        68.2735 
 539   0.0000       2.509341        68.2826 
 540   0.0000       2.520029        68.5735 
 541   0.0000       2.549712        69.3812 
 542   0.0000       2.563127        69.7462 
 543   0.0000       2.563293        69.7507 
 544   0.0000       2.581546        70.2474 
 545   0.0000       2.586288        70.3765 
 546   0.0000       2.597883        70.6920 
 547   0.0000       2.598175        70.6999 
 548   0.0000       2.614910        71.1553 
 549   0.0000       2.615106        71.1607 
 550   0.0000       2.630794        71.5875 
 551   0.0000       2.631538        71.6078 
 552   0.0000       2.631625        71.6102 
 553   0.0000       2.669589        72.6432 
 554   0.0000       2.680431        72.9382 
 555   0.0000       2.693479        73.2933 
 556   0.0000       2.693806        73.3022 
 557   0.0000       2.737738        74.4976 
 558   0.0000       2.743548        74.6557 
 559   0.0000       2.745717        74.7148 
 560   0.0000       2.745729        74.7151 
[...]
      pz      :     0.000033  p :     0.000202
      px      :     0.000136
      py      :     0.000033
 61 H s       :    -0.000010  s :    -0.000010
      pz      :     0.000165  p :     0.000544
      px      :     0.000213
      py      :     0.000166
 62 H s       :    -0.000011  s :    -0.000011
      pz      :     0.000167  p :     0.000546
      px      :     0.000165
      py      :     0.000214
 63 H s       :    -0.000525  s :    -0.000525
      pz      :     0.000033  p :     0.000202
      px      :     0.000033
      py      :     0.000137


                      *****************************
                      * MAYER POPULATION ANALYSIS *
                      *****************************

  NA   - Mulliken gross atomic population
  ZA   - Total nuclear charge
  QA   - Mulliken gross atomic charge
  VA   - Mayer's total valence
  BVA  - Mayer's bonded valence
  FA   - Mayer's free valence

  ATOM       NA         ZA         QA         VA         BVA        FA
  0 C      5.1360     6.0000     0.8640     3.7851     3.7341     0.0510
  1 C      6.3324     6.0000    -0.3324     3.8930     3.8929     0.0000
  2 C      6.3500     6.0000    -0.3500     3.9419     3.9410     0.0010
  3 C      6.3480     6.0000    -0.3480     3.9431     3.9421     0.0010
  4 C      6.3500     6.0000    -0.3500     3.9420     3.9410     0.0010
  5 C      6.3580     6.0000    -0.3580     3.9068     3.9065     0.0003
  6 C      6.3634     6.0000    -0.3634     3.9091     3.9089     0.0003
  7 C      6.3638     6.0000    -0.3638     3.9096     3.9093     0.0003
  8 C      6.3581     6.0000    -0.3581     3.9068     3.9065     0.0003
  9 C      6.3634     6.0000    -0.3634     3.9092     3.9089     0.0003
 10 C      6.3584     6.0000    -0.3584     3.9072     3.9070     0.0003
 11 C      6.1345     6.0000    -0.1345     4.3445     4.3444     0.0001
 12 C      6.1344     6.0000    -0.1344     4.3444     4.3443     0.0001
 13 C      6.1345     6.0000    -0.1345     4.3445     4.3444     0.0001
 14 C      6.3448     6.0000    -0.3448     4.6594     4.6532     0.0062
 15 C      6.3449     6.0000    -0.3449     4.6596     4.6534     0.0062
 16 C      6.3448     6.0000    -0.3448     4.6594     4.6532     0.0062
 17 C      6.3274     6.0000    -0.3274     4.6470     4.6234     0.0235
 18 C      6.3277     6.0000    -0.3277     4.6461     4.6226     0.0235
 19 C      6.3274     6.0000    -0.3274     4.6459     4.6224     0.0235
 20 C      6.3274     6.0000    -0.3274     4.6466     4.6230     0.0235
 21 C      6.3277     6.0000    -0.3277     4.6458     4.6223     0.0235
 22 C      6.3271     6.0000    -0.3271     4.6467     4.6231     0.0236
 23 C      5.1359     6.0000     0.8641     3.7852     3.7342     0.0509
 24 C      5.1360     6.0000     0.8640     3.7853     3.7344     0.0510
 25 C      6.3325     6.0000    -0.3325     3.8930     3.8929     0.0000
 26 C      6.3331     6.0000    -0.3331     3.8948     3.8947     0.0000
 27 N      6.6791     7.0000     0.3209     3.6265     3.6260     0.0004
 28 H      0.8446     1.0000     0.1554     1.0299     1.0299    -0.0000
 29 H      0.9217     1.0000     0.0783     0.9718     0.9718     0.0000
 30 H      0.8436     1.0000     0.1564     1.0344     1.0344     0.0000
 31 H      0.9262     1.0000     0.0738     0.9716     0.9716     0.0000
 32 H      0.9261     1.0000     0.0739     0.9715     0.9715     0.0000
 33 H      0.8462     1.0000     0.1538     1.0340     1.0340     0.0000
 34 H      0.8435     1.0000     0.1565     1.0344     1.0344     0.0000
 35 H      0.9262     1.0000     0.0738     0.9716     0.9716     0.0000
 36 H      0.8470     1.0000     0.1530     1.0357     1.0357     0.0000
 37 H      0.9144     1.0000     0.0856     0.9740     0.9740     0.0000
 38 H      0.9143     1.0000     0.0857     0.9740     0.9740     0.0000
 39 H      0.8395     1.0000     0.1605     1.0344     1.0344     0.0000
 40 H      0.9143     1.0000     0.0857     0.9740     0.9740     0.0000
 41 H      0.8395     1.0000     0.1605     1.0344     1.0344     0.0000
 42 H      0.8470     1.0000     0.1530     1.0357     1.0357     0.0000
 43 H      0.9144     1.0000     0.0856     0.9740     0.9740     0.0000
 44 H      0.9143     1.0000     0.0857     0.9740     0.9740     0.0000
 45 H      0.8395     1.0000     0.1605     1.0344     1.0344     0.0000
 46 H      0.8470     1.0000     0.1530     1.0358     1.0358     0.0000
 47 H      0.9144     1.0000     0.0856     0.9740     0.9740     0.0000
 48 H      0.9153     1.0000     0.0847     0.9657     0.9657     0.0000
 49 H      0.9153     1.0000     0.0847     0.9657     0.9657     0.0000
 50 H      0.9153     1.0000     0.0847     0.9657     0.9657     0.0000
 51 H      0.9368     1.0000     0.0632     0.9801     0.9782     0.0019
 52 H      0.9367     1.0000     0.0633     0.9801     0.9782     0.0019
 53 H      0.9368     1.0000     0.0632     0.9801     0.9782     0.0019
 54 H      0.9313     1.0000     0.0687     0.9794     0.9772     0.0022
 55 H      0.9313     1.0000     0.0687     0.9794     0.9772     0.0022
 56 H      0.9313     1.0000     0.0687     0.9794     0.9772     0.0022
 57 H      0.9313     1.0000     0.0687     0.9794     0.9772     0.0022
 58 H      0.9313     1.0000     0.0687     0.9794     0.9772     0.0022
 59 H      0.9314     1.0000     0.0686     0.9794     0.9772     0.0022
 60 H      0.9217     1.0000     0.0783     0.9718     0.9718     0.0000
 61 H      0.8446     1.0000     0.1554     1.0299     1.0299    -0.0000
 62 H      0.8435     1.0000     0.1565     1.0289     1.0289    -0.0000
 63 H      0.9217     1.0000     0.0783     0.9718     0.9718     0.0000

  Mayer bond orders larger than 0.100000
B(  0-C , 15-C ) :   1.0863 B(  0-C , 20-C ) :   1.0738 B(  0-C , 21-C ) :   1.0734 
B(  0-C , 23-C ) :   0.2030 B(  0-C , 24-C ) :   0.2030 B(  0-C , 27-N ) :   0.1514 
B(  1-C ,  4-C ) :   0.1459 B(  1-C , 15-C ) :   0.9635 B(  1-C , 16-C ) :   0.9635 
B(  1-C , 28-H ) :   0.7776 B(  1-C , 29-H ) :   0.9813 B(  2-C , 17-C ) :   0.9767 
B(  2-C , 21-C ) :   0.9768 B(  2-C , 25-C ) :   0.1460 B(  2-C , 30-H ) :   0.7784 
B(  2-C , 31-H ) :   0.9785 B(  3-C , 19-C ) :   0.9771 B(  3-C , 22-C ) :   0.9769 
B(  3-C , 26-C ) :   0.1456 B(  3-C , 32-H ) :   0.9785 B(  3-C , 33-H ) :   0.7804 
B(  4-C , 18-C ) :   0.9768 B(  4-C , 20-C ) :   0.9767 B(  4-C , 34-H ) :   0.7785 
B(  4-C , 35-H ) :   0.9785 B(  5-C ,  7-C ) :   0.1474 B(  5-C , 13-C ) :   0.9595 
B(  5-C , 17-C ) :   0.9714 B(  5-C , 36-H ) :   0.7647 B(  5-C , 37-H ) :   0.9723 
B(  6-C , 10-C ) :   0.1474 B(  6-C , 11-C ) :   0.9591 B(  6-C , 18-C ) :   0.9709 
B(  6-C , 38-H ) :   0.9725 B(  6-C , 39-H ) :   0.7654 B(  7-C , 12-C ) :   0.9592 
B(  7-C , 19-C ) :   0.9708 B(  7-C , 40-H ) :   0.9725 B(  7-C , 41-H ) :   0.7653 
B(  8-C ,  9-C ) :   0.1474 B(  8-C , 11-C ) :   0.9595 B(  8-C , 20-C ) :   0.9715 
B(  8-C , 42-H ) :   0.7647 B(  8-C , 43-H ) :   0.9723 B(  9-C , 13-C ) :   0.9591 
B(  9-C , 21-C ) :   0.9709 B(  9-C , 44-H ) :   0.9725 B(  9-C , 45-H ) :   0.7654 
B( 10-C , 12-C ) :   0.9596 B( 10-C , 22-C ) :   0.9713 B( 10-C , 46-H ) :   0.7646 
B( 10-C , 47-H ) :   0.9723 B( 11-C , 27-N ) :   1.1239 B( 11-C , 48-H ) :   0.9982 
B( 12-C , 27-N ) :   1.1239 B( 12-C , 49-H ) :   0.9981 B( 13-C , 27-N ) :   1.1239 
B( 13-C , 50-H ) :   0.9981 B( 14-C , 17-C ) :   0.2187 B( 14-C , 19-C ) :   0.2188 
B( 14-C , 23-C ) :   1.0863 B( 14-C , 25-C ) :   0.9634 B( 14-C , 26-C ) :   0.9636 
B( 14-C , 51-H ) :   1.0140 B( 15-C , 20-C ) :   0.2186 B( 15-C , 21-C ) :   0.2188 
B( 15-C , 25-C ) :   0.9636 B( 15-C , 52-H ) :   1.0140 B( 16-C , 18-C ) :   0.2188 
B( 16-C , 22-C ) :   0.2187 B( 16-C , 24-C ) :   1.0863 B( 16-C , 26-C ) :   0.9635 
B( 16-C , 53-H ) :   1.0140 B( 17-C , 19-C ) :   0.2227 B( 17-C , 23-C ) :   1.0740 
B( 17-C , 54-H ) :   1.0080 B( 18-C , 22-C ) :   0.2226 B( 18-C , 24-C ) :   1.0736 
B( 18-C , 55-H ) :   1.0080 B( 19-C , 23-C ) :   1.0736 B( 19-C , 56-H ) :   1.0079 
B( 20-C , 21-C ) :   0.2227 B( 20-C , 57-H ) :   1.0079 B( 21-C , 58-H ) :   1.0080 
B( 22-C , 24-C ) :   1.0740 B( 22-C , 59-H ) :   1.0079 B( 23-C , 24-C ) :   0.2030 
B( 23-C , 27-N ) :   0.1514 B( 24-C , 27-N ) :   0.1513 B( 25-C , 60-H ) :   0.9813 
B( 25-C , 61-H ) :   0.7775 B( 26-C , 62-H ) :   0.7800 B( 26-C , 63-H ) :   0.9814 
B( 28-H , 34-H ) :   0.2210 B( 30-H , 61-H ) :   0.2211 B( 33-H , 62-H ) :   0.2188 
B( 36-H , 41-H ) :   0.2404 B( 39-H , 46-H ) :   0.2404 B( 42-H , 45-H ) :   0.2404 


-------
TIMINGS
-------

Total SCF time: 0 days 0 hours 1 min 4 sec 

Total time                  ....      64.643 sec
Sum of individual times     ....      60.601 sec  ( 93.7%)

Fock matrix formation       ....      41.595 sec  ( 64.3%)
  Split-RI-J                ....      23.740 sec  ( 57.1% of F)
  XC integration            ....      10.970 sec  ( 26.4% of F)
    Basis function eval.    ....       0.328 sec  (  3.0% of XC)
    Density eval.           ....       1.180 sec  ( 10.8% of XC)
    XC-Functional eval.     ....       0.334 sec  (  3.0% of XC)
    XC-Potential eval.      ....       1.213 sec  ( 11.1% of XC)
Diagonalization             ....       7.713 sec  ( 11.9%)
Density matrix formation    ....       0.621 sec  (  1.0%)
Population analysis         ....       0.878 sec  (  1.4%)
Initial guess               ....       0.858 sec  (  1.3%)
Orbital Transformation      ....       0.000 sec  (  0.0%)
Orbital Orthonormalization  ....       0.000 sec  (  0.0%)
DIIS solution               ....       5.302 sec  (  8.2%)
Grid generation             ....       3.635 sec  (  5.6%)

-------------------------   --------------------
FINAL SINGLE POINT ENERGY     -1103.169396744998
-------------------------   --------------------

   --->>> g-tensor requested, so NeedSOC=true

                            ***************************************
                            *     ORCA property calculations      *
                            ***************************************

                                    ---------------------
                                    Active property flags
                                    ---------------------
   (+) Dipole Moment
   (+) g-tensor
   (+) Nuclear properties (Hyperfine,Quadrupole)
   (+) Spin-Orbit Integrals are needed


------------------------------------------------------------------------------
                       ORCA ELECTRIC PROPERTIES CALCULATION
------------------------------------------------------------------------------

Dipole Moment Calculation                       ... on
Quadrupole Moment Calculation                   ... off
Polarizability Calculation                      ... off
GBWName                                         ... epr.gbw
Electron density file                           ... epr.scfp
The origin for moment calculation is the CENTER OF MASS  = (13.477258, 13.477285 13.477257)

-------------
DIPOLE MOMENT
-------------
                                X             Y             Z
Electronic contribution:     -0.62842      -0.63164      -0.62828
Nuclear contribution   :      0.18839       0.19299       0.18822
                        -----------------------------------------
Total Dipole Moment    :     -0.44003      -0.43865      -0.44005
                        -----------------------------------------
Magnitude (a.u.)       :      0.76137
Magnitude (Debye)      :      1.93526



--------------------
Rotational spectrum 
--------------------
 
Rotational constants in cm-1:     0.009246     0.009141     0.009141 
Rotational constants in MHz :   277.183012   274.048569   274.045290 

 Dipole components along the rotational axes: 
x,y,z [a.u.] :    -0.761373    -0.000566     0.000023 
x,y,z [Debye]:    -1.935256    -0.001440     0.000059 

 


           ************************************************************
           *        Program running with 72 parallel MPI-processes    *
           *              working on a shared directory               *
           ************************************************************
------------------------------------------------------------------------------
                         ORCA SPIN-ORBIT COUPLING CALCULATION
------------------------------------------------------------------------------

GBW file                                    ... epr.gbw
Input density                               ... epr.scfp
Output integrals                            ... epr
Operator type                               ... Mean-field/Effective potential
   One-Electron Terms                       ... 1
   Coulomb Contribution                     ... 2
   Exchange Contribution                    ... 3
   Correlation Contribution                 ... 0
   Maximum number of centers                ... 4
Setting up the integration grid             ... done
Evaluating density on the grid              ... (NumEl=  206.136493) done
Evaluating Coulomb term semi-analytically   ... done
One-Center Exchange (+SOO)                  ... done
Evaluating the spin-orbit operator          ... done
Total time for SOC: 70.469


           ************************************************************
           *        Program running with 72 parallel MPI-processes    *
           *              working on a shared directory               *
           ************************************************************
------------------------------------------------------------------------------
                                ORCA EPR/NMR CALCULATION
------------------------------------------------------------------------------

GBWName                      ... epr.gbw
Electron density file        ... epr.scfp
Spin density file            ... epr.scfr
Spin-orbit integrals         ... epr
Origin for angular momentum  ... Center of electronic charge
Coordinates of the origin    ...   13.48030819   13.48035136   13.48030645 (bohrs)
Details of the CP(SCF) procedure:
       Solver   = POPLE   
       MaxIter  =    64   
       Tolerance=    1.000e-06
       COSX Grid=     1   
       Op-0     =   0-103 => 104-727
       Op-1     =   0-101 => 102-727
Multiplicity                 ... 3
g-tensor                     ... 1
NMR chemical shifts          ... 0
Number of nuclei for epr/nmr ... 1
   Nucleus:  27N 
       Hyperfine : Isotope=   14 I=   1.000 P=  38.568
       Quadrupole: Isotope=   14 I=   1.000 Q=   0.020
       Spin-Orbit: Zeff=   4.550
       Ncuelar Spin-Spin: Gn=   0.000
       rho(0)=N f(grad)=N a(iso)=Y a(dip)=Y a(orb)=N sigma(nmr)=N spin-spin(nmr)=all-N,DSO-N,PSO-N,FC-N,SD-N
Forming RHS of the CP-SCF equations         ... 
Using LibInt in CPSCF-CP

Calculating angular momentum integrals               ... done

Forming final perturbed densities           ... done
Transforming perturbed density to AO basis  ... done

Magnetic field perturbation calculated in  1.085 sec

-------------------
ELECTRONIC G-MATRIX
-------------------

 The g-matrix: 
              2.0025299   -0.0000110   -0.0000114
             -0.0000114    2.0025300   -0.0000112
             -0.0000112   -0.0000113    2.0025299

 gel          2.0023193    2.0023193    2.0023193
 gRMC        -0.0001395   -0.0001395   -0.0001395
 gDSO(tot)    0.0001762    0.0001281    0.0001281
 gPSO(tot)    0.0001515    0.0002333    0.0002333
             ----------   ----------   ----------
 g(tot)       2.0025074    2.0025412    2.0025412 iso=  2.0025299
 Delta-g      0.0001881    0.0002219    0.0002219 iso=  0.0002106
 Orientation: 
  X           0.5786754    0.7650325   -0.2825954
  Y           0.5747022   -0.1366580    0.8068717
  Z           0.5786641   -0.6293250   -0.5187465

Notes:  (1) The g-matrix conforms to the "BgS" spin Hamiltonian convention. 
        (2) The principal values are square roots of the eigenvalues of g*gT.
        (3) Orientations are eigenvectors of g*gT written as column vectors.
        (4) Individual contributions are projections of the full matrices onto the eigenvectors of g*gT.
        (5) Tensor is right-handed.


-----------------------------------------
ELECTRIC AND MAGNETIC HYPERFINE STRUCTURE
-----------------------------------------

 -----------------------------------------------------------
 Nucleus  27N : A:ISTP=   14 I=  1.0 P= 38.5677 MHz/au**3
                Q:ISTP=   14 I=  1.0 Q=  0.0204 barn     
 -----------------------------------------------------------
 Raw HFC matrix (all values in MHz): 
 ------------------------------
                -1.2042               0.2058               0.2058
                 0.2058              -1.2042               0.2058
                 0.2058               0.2058              -1.2042

 A(FC)          -1.2042              -1.2042              -1.2042
 A(SD)           0.4116              -0.2058              -0.2058
             ----------           ----------           ----------
 A(Tot)         -0.7926              -1.4100              -1.4100    A(iso)=   -1.2042
 Orientation: 
  X          -0.5773166            0.7126349            0.3985687
  Y          -0.5774013           -0.0111673           -0.8163841
  Z          -0.5773329           -0.7014462            0.4179234

Notes:  (1) The A matrix conforms to the "SAI" spin Hamiltonian convention.
        (2) Tensor is right-handed.


------------------------------------------------------------------------------- 
----------------------------------------------------------------------------
                           ORCA EULER ANGLE PROGRAM
----------------------------------------------------------------------------

Only g-tensor available        -->  using g-tensor as reference tensor

Reference tensor               ...  g

g-tensor ordering              ...  |g_min> --> |gx>
                                    |g_mid> --> |gy>
                                    |g_max> --> |gz>

A- and EFG-tensor ordering     ...  the axes |Ax>, |Qx>, |Ay>, etc. are assigned
                                    such that the Euler rotation is minimal. You
                                    can find the respective eigenvalues as Ax,
                                    EFGx, Ay, etc. in the tables below.
                                    The relation of |Ax>, |Ay>,  etc. to Amin, Amid, etc.
                                    (as printed in the ORCA EPR/NMR CALCULATION Output)
                                    is obtained in the detailed printout.

Euler rotation around          ...  z - y - z
   First rotation              -->  by alpha around z
   Second rotation             -->  by beta around y'
   Third rotation              -->  by gamma around z''
   Positive / Negative angle   -->  clockwise / counterclockwise rotation

Plot EFG-tensors                    (-)
Plot HFC-tensors                    (-)
Detailed Printout                   (-)

-------------------------------------------------------------------------
          Euler rotation of hyperfine tensor to g-tensor
-------------------------------------------------------------------------

-------------------------------------------------------------------
 Atom  |   Alpha    Beta    Gamma   |   Ax       Ay       Az 
       |          [degrees]         |           [MHz]         
-------------------------------------------------------------------
 27N       88.8      8.8    -88.8      -0.79    -1.41    -1.41
-------------------------------------------------------------------


Timings for individual modules:

Sum of individual times         ...      183.355 sec (=   3.056 min)
GTO integral calculation        ...       18.627 sec (=   0.310 min)  10.2 %
Spin-Orbit-Coupling Matrices    ...       70.437 sec (=   1.174 min)  38.4 %
SCF iterations                  ...       73.187 sec (=   1.220 min)  39.9 %
EPR/NMR calculation             ...       21.103 sec (=   0.352 min)  11.5 %
                             ****ORCA TERMINATED NORMALLY****
TOTAL RUN TIME: 0 days 0 hours 3 minutes 23 seconds 249 msec
