
     Program PWSCF v.6.1 starts on  5May2019 at 14:28: 2 

     This program is part of the open-source Quantum ESPRESSO suite
     for quantum simulation of materials; please cite
         "P. Giannozzi et al., J. Phys.:Condens. Matter 21 395502 (2009);
          URL http://www.quantum-espresso.org", 
     in publications or presentations arising from this work. More details at
     http://www.quantum-espresso.org/quote

     Parallel version (MPI), running on   180 processors
     K-points division:     npool     =       5
     R & G space division:  proc/nbgrp/npool/nimage =      36
     Waiting for input...
     Reading input from standard input
Warning: card &CELL ignored
Warning: card / ignored
Warning: card &IONS ignored
Warning: card / ignored

     Current dimensions of program PWSCF are:
     Max number of different atomic species (ntypx) = 10
     Max number of k-points (npk) =  40000
     Max angular momentum in pseudopotentials (lmaxx) =  3

     Atomic positions and unit cell read from directory:
     ./out/bn.save/
 

     Subspace diagonalization in iterative solution of the eigenvalue problem:
     one sub-group per band group will be used
     scalapack distributed-memory algorithm (size of sub-group:  4*  4 procs)

 
     Parallelization info
     --------------------
     sticks:   dense  smooth     PW     G-vecs:    dense   smooth      PW
     Min         445     445    115                48143    48143    6337
     Max         446     446    116                48147    48147    6342
     Sum       16021   16021   4153              1733155  1733155  228215
 


     bravais-lattice index     =            0
     lattice parameter (alat)  =      28.4285  a.u.
     unit-cell volume          =   20997.1598 (a.u.)^3
     number of atoms/cell      =           71
     number of atomic types    =            2
     number of electrons       =       285.00
     number of Kohn-Sham states=         1710
     kinetic-energy cutoff     =      72.0000  Ry
     charge density cutoff     =     288.0000  Ry
     Exchange-correlation      = PBE ( 1  4  3  4 0 0)

     celldm(1)=  28.428531  celldm(2)=   0.000000  celldm(3)=   0.000000
     celldm(4)=   0.000000  celldm(5)=   0.000000  celldm(6)=   0.000000

     crystal axes: (cart. coord. in units of alat)
               a(1) = (   1.000000   0.000000   0.000000 )  
               a(2) = (  -0.500000   0.866025   0.000000 )  
               a(3) = (   0.000000   0.000000   1.055277 )  

     reciprocal axes: (cart. coord. in units 2 pi/alat)
               b(1) = (  1.000000  0.577350  0.000000 )  
               b(2) = (  0.000000  1.154701  0.000000 )  
               b(3) = (  0.000000  0.000000  0.947618 )  


     PseudoPot. # 1 for B  read from file:
     /sdcc/u/jxuucsc/pseudopotentials/oncv/dojo/nc-sr-04_pbe_standard/B.upf
     MD5 check sum: 72f82fc31bc892420d0cab7e25c88ab8
     Pseudo is Norm-conserving + core correction, Zval =  3.0
     Generated using ONCVPSP code by D. R. Hamann
     Using radial grid of 1534 points,  4 beta functions with: 
                l(1) =   0
                l(2) =   0
                l(3) =   1
                l(4) =   1

     PseudoPot. # 2 for N  read from file:
     /sdcc/u/jxuucsc/pseudopotentials/oncv/dojo/nc-sr-04_pbe_standard/N.upf
     MD5 check sum: d34365f73bb0e2ee98afc20ec3e87676
     Pseudo is Norm-conserving + core correction, Zval =  5.0
     Generated using ONCVPSP code by D. R. Hamann
     Using radial grid of 1058 points,  4 beta functions with: 
                l(1) =   0
                l(2) =   0
                l(3) =   1
                l(4) =   1

     atomic species   valence    mass     pseudopotential
        B              3.00    10.81100     B ( 1.00)
        N              5.00    14.00670     N ( 1.00)

     Starting magnetic structure 
     atomic species   magnetization
        B            1.000
        N            0.000

      2 Sym. Ops. (no inversion) found


                                    s                        frac. trans.

      isym =  1     identity                                     

 cryst.   s( 1) = (     1          0          0      )
                  (     0          1          0      )
                  (     0          0          1      )

 cart.    s( 1) = (  1.0000000  0.0000000  0.0000000 )
                  (  0.0000000  1.0000000  0.0000000 )
                  (  0.0000000  0.0000000  1.0000000 )


      isym =  2     inv. 180 deg rotation - cart. axis [0,0,1]   

 cryst.   s( 2) = (     1          0          0      )
                  (     0          1          0      )
                  (     0          0         -1      )

 cart.    s( 2) = (  1.0000000  0.0000000  0.0000000 )
                  (  0.0000000  1.0000000  0.0000000 )
                  (  0.0000000  0.0000000 -1.0000000 )


   Cartesian axes

     site n.     atom                  positions (alat units)
         1           B   tau(   1) = (   0.0847231   0.0481540   0.0000000  )
         2           B   tau(   2) = (   0.0016770   0.1914565   0.0000000  )
         3           B   tau(   3) = (  -0.0840778   0.3353945   0.0000000  )
         4           B   tau(   4) = (  -0.1696568   0.4797546   0.0000000  )
         5           B   tau(   5) = (  -0.2530748   0.6239652   0.0000000  )
         6           B   tau(   6) = (  -0.3348404   0.7684369   0.0000000  )
         7           B   tau(   7) = (   0.2505117   0.0502720   0.0000000  )
         8           B   tau(   8) = (   0.1709026   0.1983438   0.0000000  )
         9           B   tau(   9) = (   0.0817528   0.3373515   0.0000000  )
        10           B   tau(  10) = (  -0.0042095   0.4808807   0.0000000  )
        11           B   tau(  11) = (  -0.0867441   0.6252872   0.0000000  )
        12           B   tau(  12) = (  -0.1688195   0.7699870   0.0000000  )
        13           B   tau(  13) = (   0.4160692   0.0489274   0.0000000  )
        14           B   tau(  14) = (   0.3356978   0.1980139   0.0000000  )
        15           B   tau(  15) = (   0.2531664   0.3544380   0.0000000  )
        16           B   tau(  16) = (   0.1597980   0.4828478   0.0000000  )
        17           B   tau(  17) = (   0.0795233   0.6259253   0.0000000  )
        18           B   tau(  18) = (  -0.0021996   0.7698349   0.0000000  )
        19           B   tau(  19) = (   0.5841764   0.0456361   0.0000000  )
        20           B   tau(  20) = (   0.5048932   0.1891278   0.0000000  )
        21           N   tau(  21) = (   0.4218040   0.3315653   0.0000000  )
        22           B   tau(  22) = (   0.3177000   0.4662634   0.0000000  )
        23           B   tau(  23) = (   0.2467476   0.6231930   0.0000000  )
        24           B   tau(  24) = (   0.1655985   0.7678115   0.0000000  )
        25           B   tau(  25) = (   0.7514437   0.0444982   0.0000000  )
        26           B   tau(  26) = (   0.6701744   0.1882608   0.0000000  )
        27           B   tau(  27) = (   0.5866993   0.3309240   0.0000000  )
        28           B   tau(  28) = (   0.4944463   0.4730006   0.0000000  )
        29           B   tau(  29) = (   0.4117551   0.6155477   0.0000000  )
        30           B   tau(  30) = (   0.3330453   0.7654626   0.0000000  )
        31           B   tau(  31) = (   0.9178190   0.0451881   0.0000000  )
        32           B   tau(  32) = (   0.8352774   0.1897201   0.0000000  )
        33           B   tau(  33) = (   0.7506285   0.3340390   0.0000000  )
        34           B   tau(  34) = (   0.6637847   0.4779533   0.0000000  )
        35           B   tau(  35) = (   0.5798262   0.6206343   0.0000000  )
        36           B   tau(  36) = (   0.4986761   0.7652428   0.0000000  )
        37           N   tau(  37) = (   0.0009878   0.0948530   0.0000000  )
        38           N   tau(  38) = (  -0.0821535   0.2389025   0.0000000  )
        39           N   tau(  39) = (  -0.1675063   0.3833042   0.0000000  )
        40           N   tau(  40) = (  -0.2533358   0.5273925   0.0000000  )
        41           N   tau(  41) = (  -0.3366966   0.6711428   0.0000000  )
        42           N   tau(  42) = (  -0.4178046   0.8162870   0.0000000  )
        43           N   tau(  43) = (   0.1683492   0.0997017   0.0000000  )
        44           N   tau(  44) = (   0.0846690   0.2413717   0.0000000  )
        45           N   tau(  45) = (  -0.0021402   0.3846286   0.0000000  )
        46           N   tau(  46) = (  -0.0871835   0.5289095   0.0000000  )
        47           N   tau(  47) = (  -0.1698997   0.6733168   0.0000000  )
        48           N   tau(  48) = (  -0.2515372   0.8187653   0.0000000  )
        49           N   tau(  49) = (   0.3340221   0.1000458   0.0000000  )
        50           N   tau(  50) = (   0.2554617   0.2523207   0.0000000  )
        51           N   tau(  51) = (   0.1629030   0.3873751   0.0000000  )
        52           N   tau(  52) = (   0.0777490   0.5302427   0.0000000  )
        53           N   tau(  53) = (  -0.0034931   0.6738819   0.0000000  )
        54           N   tau(  54) = (  -0.0852922   0.8185052   0.0000000  )
        55           N   tau(  55) = (   0.5011444   0.0940486   0.0000000  )
        56           N   tau(  56) = (   0.4240715   0.2398383   0.0000000  )
        57           N   tau(  57) = (   0.2440043   0.5279301   0.0000000  )
        58           N   tau(  58) = (   0.1639025   0.6722354   0.0000000  )
        59           N   tau(  59) = (   0.0824418   0.8161250   0.0000000  )
        60           N   tau(  60) = (   0.6683863   0.0925773   0.0000000  )
        61           N   tau(  61) = (   0.5876484   0.2358831   0.0000000  )
        62           N   tau(  62) = (   0.5023518   0.3755625   0.0000000  )
        63           N   tau(  63) = (   0.4073170   0.5153750   0.0000000  )
        64           N   tau(  64) = (   0.3313017   0.6686342   0.0000000  )
        65           N   tau(  65) = (   0.2501000   0.8144031   0.0000000  )
        66           N   tau(  66) = (   0.8346795   0.0932545   0.0000000  )
        67           N   tau(  67) = (   0.7521500   0.2376894   0.0000000  )
        68           N   tau(  68) = (   0.6671665   0.3817227   0.0000000  )
        69           N   tau(  69) = (   0.5784824   0.5234233   0.0000000  )
        70           N   tau(  70) = (   0.4959339   0.6671172   0.0000000  )
        71           N   tau(  71) = (   0.4163257   0.8143468   0.0000000  )

   Crystallographic axes

     site n.     atom                  positions (cryst. coord.)
         1           B   tau(   1) = (  0.1125249  0.0556035  0.0000000  )
         2           B   tau(   2) = (  0.1122145  0.2210750  0.0000000  )
         3           B   tau(   3) = (  0.1095623  0.3872802  0.0000000  )
         4           B   tau(   4) = (  0.1073296  0.5539729  0.0000000  )
         5           B   tau(   5) = (  0.1071717  0.7204929  0.0000000  )
         6           B   tau(   6) = (  0.1088169  0.8873145  0.0000000  )
         7           B   tau(   7) = (  0.2795363  0.0580492  0.0000000  )
         8           B   tau(   8) = (  0.2854165  0.2290277  0.0000000  )
         9           B   tau(   9) = (  0.2765228  0.3895400  0.0000000  )
        10           B   tau(  10) = (  0.2734271  0.5552732  0.0000000  )
        11           B   tau(  11) = (  0.2742656  0.7220195  0.0000000  )
        12           B   tau(  12) = (  0.2757327  0.8891044  0.0000000  )
        13           B   tau(  13) = (  0.4443174  0.0564964  0.0000000  )
        14           B   tau(  14) = (  0.4500212  0.2286468  0.0000000  )
        15           B   tau(  15) = (  0.4578013  0.4092698  0.0000000  )
        16           B   tau(  16) = (  0.4385703  0.5575447  0.0000000  )
        17           B   tau(  17) = (  0.4409014  0.7227563  0.0000000  )
        18           B   tau(  18) = (  0.4422648  0.8889287  0.0000000  )
        19           B   tau(  19) = (  0.6105244  0.0526960  0.0000000  )
        20           B   tau(  20) = (  0.6140862  0.2183860  0.0000000  )
        21           N   tau(  21) = (  0.6132333  0.3828586  0.0000000  )
        22           B   tau(  22) = (  0.5868973  0.5383946  0.0000000  )
        23           B   tau(  23) = (  0.6065483  0.7196013  0.0000000  )
        24           B   tau(  24) = (  0.6088947  0.8865923  0.0000000  )
        25           B   tau(  25) = (  0.7771348  0.0513821  0.0000000  )
        26           B   tau(  26) = (  0.7788669  0.2173848  0.0000000  )
        27           B   tau(  27) = (  0.7777584  0.3821182  0.0000000  )
        28           B   tau(  28) = (  0.7675334  0.5461741  0.0000000  )
        29           B   tau(  29) = (  0.7671417  0.7107732  0.0000000  )
        30           B   tau(  30) = (  0.7749854  0.8838801  0.0000000  )
        31           B   tau(  31) = (  0.9439084  0.0521788  0.0000000  )
        32           B   tau(  32) = (  0.9448123  0.2190699  0.0000000  )
        33           B   tau(  33) = (  0.9434860  0.3857150  0.0000000  )
        34           B   tau(  34) = (  0.9397312  0.5518930  0.0000000  )
        35           B   tau(  35) = (  0.9381496  0.7166468  0.0000000  )
        36           B   tau(  36) = (  0.9404893  0.8836263  0.0000000  )
        37           N   tau(  37) = (  0.0557511  0.1095268  0.0000000  )
        38           N   tau(  38) = (  0.0557769  0.2758609  0.0000000  )
        39           N   tau(  39) = (  0.0537945  0.4426015  0.0000000  )
        40           N   tau(  40) = (  0.0511544  0.6089805  0.0000000  )
        41           N   tau(  41) = (  0.0507879  0.7749689  0.0000000  )
        42           N   tau(  42) = (  0.0534789  0.9425670  0.0000000  )
        43           N   tau(  43) = (  0.2259120  0.1151257  0.0000000  )
        44           N   tau(  44) = (  0.2240250  0.2787120  0.0000000  )
        45           N   tau(  45) = (  0.2199253  0.4441309  0.0000000  )
        46           N   tau(  46) = (  0.2181825  0.6107321  0.0000000  )
        47           N   tau(  47) = (  0.2188399  0.7774793  0.0000000  )
        48           N   tau(  48) = (  0.2211771  0.9454287  0.0000000  )
        49           N   tau(  49) = (  0.3917836  0.1155230  0.0000000  )
        50           N   tau(  50) = (  0.4011392  0.2913549  0.0000000  )
        51           N   tau(  51) = (  0.3865541  0.4473022  0.0000000  )
        52           N   tau(  52) = (  0.3838848  0.6122716  0.0000000  )
        53           N   tau(  53) = (  0.3855727  0.7781317  0.0000000  )
        54           N   tau(  54) = (  0.3872720  0.9451284  0.0000000  )
        55           N   tau(  55) = (  0.5554433  0.1085980  0.0000000  )
        56           N   tau(  56) = (  0.5625422  0.2769414  0.0000000  )
        57           N   tau(  57) = (  0.5488049  0.6096012  0.0000000  )
        58           N   tau(  58) = (  0.5520177  0.7762306  0.0000000  )
        59           N   tau(  59) = (  0.5536318  0.9423799  0.0000000  )
        60           N   tau(  60) = (  0.7218358  0.1068991  0.0000000  )
        61           N   tau(  61) = (  0.7238356  0.2723744  0.0000000  )
        62           N   tau(  62) = (  0.7191830  0.4336623  0.0000000  )
        63           N   tau(  63) = (  0.7048689  0.5951038  0.0000000  )
        64           N   tau(  64) = (  0.7173379  0.7720723  0.0000000  )
        65           N   tau(  65) = (  0.7202958  0.9403917  0.0000000  )
        66           N   tau(  66) = (  0.8885200  0.1076810  0.0000000  )
        67           N   tau(  67) = (  0.8893801  0.2744601  0.0000000  )
        68           N   tau(  68) = (  0.8875542  0.4407755  0.0000000  )
        69           N   tau(  69) = (  0.8806809  0.6043971  0.0000000  )
        70           N   tau(  70) = (  0.8810942  0.7703206  0.0000000  )
        71           N   tau(  71) = (  0.8864891  0.9403267  0.0000000  )

     number of k points=     5  Marzari-Vanderbilt smearing, width (Ry)=  0.0010
                       cart. coord. in units 2pi/alat
        k(    1) = (   0.0000000   0.0000000   0.0000000), wk =   0.1111111
        k(    2) = (   0.0000000   0.3849002   0.0000000), wk =   0.2222222
        k(    3) = (   0.3333333   0.5773503   0.0000000), wk =   0.2222222
        k(    4) = (  -0.3333333   0.1924501   0.0000000), wk =   0.2222222
        k(    5) = (   0.3333333   0.1924501   0.0000000), wk =   0.2222222

                       cryst. coord.
        k(    1) = (   0.0000000   0.0000000   0.0000000), wk =   0.1111111
        k(    2) = (   0.0000000   0.3333333   0.0000000), wk =   0.2222222
        k(    3) = (   0.3333333   0.3333333   0.0000000), wk =   0.2222222
        k(    4) = (  -0.3333333   0.3333333   0.0000000), wk =   0.2222222
        k(    5) = (   0.3333333   0.0000000   0.0000000), wk =   0.2222222

     Dense  grid:  1733155 G-vectors     FFT dimensions: ( 160, 160, 180)

     Estimated max dynamical RAM per process >     962.65MB

     Estimated total allocated dynamical RAM >  173277.41MB
     Generating pointlists ...
     new r_m :   0.0391 (alat units)  1.1112 (a.u.) for type    1
     new r_m :   0.0378 (alat units)  1.0760 (a.u.) for type    2

     The potential is recalculated from file :
     ./out/bn.save/charge-density.dat

     Starting wfc are  284 randomized atomic wfcs + 1426 random wfc

     Band Structure Calculation
     Davidson diagonalization with overlap

     Computing kpt #:     1
     total cpu time spent up to now is     3067.5 secs

     Computing kpt #:     2
     total cpu time spent up to now is     5628.4 secs

     ethr =  3.51E-12,  avg # of iterations = 20.9

     total cpu time spent up to now is     5628.4 secs

     End of band structure calculation

 ------ SPIN UP ------------


          k = 0.0000 0.0000 0.0000 (216681 PWs)   bands (ev):

   -23.6658 -21.2286 -20.8673 -20.8116 -20.7247 -20.7039 -20.6985 -20.2097
   -20.1013 -19.8246 -19.7725 -19.6854 -19.6556 -19.5417 -19.4944 -19.3951
   -19.2912 -19.2873 -19.1065 -18.7483 -18.5445 -18.4274 -18.3611 -18.3460
   -18.3275 -18.3099 -18.3041 -18.2752 -18.2606 -18.2194 -18.1479 -18.1003
   -18.0779 -17.7365 -17.5909 -15.1300 -12.6418 -12.5617 -12.4073 -12.2562
   -12.0732 -11.8365 -11.8113 -11.7528 -11.7305 -11.7009 -11.6934 -11.6294
   -11.6185 -11.5621 -11.4687 -11.3777 -11.1476 -10.8384 -10.8112 -10.6985
   -10.6638 -10.5284 -10.4181 -10.3084  -9.8141  -9.7483  -9.4129  -9.2998
    -9.1654  -9.1552  -9.1529  -9.1412  -9.0811  -9.0513  -9.0294  -8.9939
    -8.9887  -8.9671  -8.9227  -8.8803  -8.8409  -8.6707  -8.5114  -8.4183
    -8.2360  -8.2050  -8.1752  -8.1374  -8.0808  -8.0515  -7.7774  -7.7563
    -7.7141  -7.6921  -7.5899  -7.5485  -7.5372  -7.5090  -7.4671  -7.4212
    -7.2747  -7.2692  -7.2166  -7.2015  -7.0478  -7.0335  -7.0065  -6.9549
    -6.9427  -6.8739  -6.8392  -6.8316  -6.7384  -6.6707  -6.4262  -6.3412
    -6.3389  -6.2782  -6.2689  -6.1960  -6.1567  -6.0622  -5.9226  -5.9165
    -5.8533  -5.8112  -5.4442  -5.2138  -5.1012  -5.0784  -5.0119  -4.8200
    -4.7772  -4.7541  -4.7535  -4.7378  -4.7354  -4.6817  -4.6799  -4.6131
    -4.6124  -4.5180  -4.5087  -3.8569  -3.6846  -2.9998  -1.8365   0.1974
     1.0063   1.0388   1.0559   1.1656   1.1706   1.3893   1.6780   1.7048
     1.7228   1.7839   1.7876   1.7929   1.8082   1.8098   1.8922   1.8946
     1.9143   1.9146   1.9209   1.9362   1.9889   2.1024   2.2448   2.3356
     2.4999   2.7919   2.7972   2.8059   2.8222   2.8321   2.8843   3.1804
     3.3000   3.3113   3.3487   3.3519   3.3663   3.3715   3.3739   3.3816
     3.4056   3.5222   3.5451   3.6369   3.6370   3.6487   3.6682   3.6704
     3.7376   3.9232   3.9263   3.9590   3.9761   4.0612   4.1420   4.1573
     4.2047   4.3488   4.3979   4.4184   4.5246   4.5982   4.6207   4.6313
     4.6741   4.8049   4.8077   4.8157   4.8308   4.8388   5.0472   5.1347
     5.1348   5.1370   5.1464   5.1613   5.1686   5.2005   5.2562   5.2621
     5.2825   5.3543   5.4414   5.4929   5.4948   5.5181   5.5398   5.6063
     5.6880   5.7312   5.7423   5.7438   5.7491   5.7703   5.8131   5.9283
     5.9312   5.9498   5.9521   5.9694   5.9896   6.0761   6.2643   6.3321
     6.5564   6.5992   6.7289   6.7584   6.7700   6.8125   6.8131   6.8398
     6.8550   6.8630   6.8668   6.9151   6.9209   6.9590   6.9673   6.9937
     7.0091   7.0402   7.0421   7.0436   7.0437   7.0546   7.0748   7.0769
     7.1011   7.1170   7.1422   7.1455   7.1557   7.1781   7.1952   7.2152
     7.2286   7.2290   7.2367   7.3303   7.4490   7.4706   7.5607   7.6093
     7.6578   7.6891   7.6929   7.7571   7.7606   7.7677   7.7724   7.7786
     7.7826   7.9463   7.9994   8.0231   8.0274   8.0328   8.0350   8.0424
     8.0452   8.0616   8.0636   8.0706   8.0926   8.1118   8.1176   8.1243
     8.2442   8.3715   8.3803   8.3940   8.4200   8.4294   8.4546   8.4568
     8.4761   8.4778   8.4860   8.4967   8.4973   8.5157   8.5363   8.5446
     8.5720   8.6664   8.6788   8.7203   8.7493   8.7783   8.7940   8.8077
     8.8395   8.8436   8.8633   8.8763   8.8930   8.8942   8.9379   8.9597
     8.9930   8.9931   9.0083   9.0244   9.0289   9.0349   9.0567   9.0580
     9.1038   9.1492   9.1501   9.1676   9.1804   9.1876   9.2100   9.2115
     9.2245   9.2336   9.2726   9.2735   9.3086   9.4396   9.4968   9.5078
     9.5344   9.5608   9.5738   9.6044   9.7537   9.7702   9.8498   9.8797
     9.8900   9.8972   9.9041   9.9045   9.9106   9.9122   9.9131   9.9213
     9.9359   9.9392   9.9760  10.0045  10.0251  10.0526  10.0536  10.0821
    10.0909  10.1261  10.1395  10.2099  10.2333  10.3040  10.3122  10.3180
    10.3270  10.3502  10.3600  10.3628  10.4112  10.4117  10.4362  10.5007
    10.5179  10.5293  10.5607  10.5920  10.7096  10.7205  10.7465  10.7490
    10.7552  10.7768  10.7882  10.8076  10.8228  10.9155  10.9376  10.9503
    11.0306  11.0542  11.0573  11.0681  11.0692  11.0858  11.1103  11.1819
    11.3962  11.4679  11.4892  11.5071  11.5218  11.5325  11.5420  11.5519
    11.5778  11.5787  11.6109  11.6480  11.6494  11.6501  11.6630  11.6640
    11.6804  11.6852  11.6873  11.7016  11.7123  11.7325  11.7340  11.7399
    11.7491  11.7594  11.7723  11.8144  11.8208  11.8278  11.8370  11.8579
    11.8703  11.8893  11.8949  11.9037  11.9144  11.9238  11.9405  11.9537
    11.9817  11.9844  12.0983  12.1499  12.1643  12.1864  12.1899  12.2273
    12.2456  12.3050  12.3134  12.3626  12.5394  12.6229  12.6741  12.6883
    12.7157  12.7756  12.7880  12.7927  12.8232  12.8317  12.9597  12.9673
    12.9757  13.1032  13.1036  13.2172  13.2906  13.2968  13.3024  13.4746
    13.4826  13.5042  13.5079  13.5117  13.5332  13.5352  13.5475  13.5531
    13.5583  13.5650  13.5651  13.5689  13.5712  13.5772  13.5879  13.5947
    13.5987  13.5994  13.6162  13.6178  13.6435  13.6490  13.6579  13.6725
    13.6756  13.6823  13.6880  13.6911  13.6975  13.7053  13.7718  13.8942
    13.9094  13.9401  13.9849  13.9929  14.1550  14.1714  14.1913  14.2029
    14.2122  14.2216  14.2485  14.2600  14.2717  14.2765  14.2918  14.2946
    14.3068  14.3109  14.3141  14.3190  14.3250  14.3269  14.3342  14.3408
    14.3587  14.3648  14.3721  14.4043  14.4266  14.4376  14.4404  14.4825
    14.4932  14.5118  14.5135  14.5229  14.5252  14.5259  14.5278  14.5313
    14.5319  14.5334  14.5399  14.5459  14.5737  14.5934  14.6428  14.6530
    14.6612  14.7273  14.7285  14.7539  14.7744  14.8105  14.8108  14.8391
    14.8421  14.8646  14.8718  14.9229  14.9392  14.9609  15.0039  15.0573
    15.0655  15.0833  15.1046  15.1067  15.1471  15.1484  15.1795  15.2101
    15.2132  15.2295  15.2352  15.2428  15.2583  15.2832  15.3795  15.4000
    15.4384  15.4518  15.5558  15.5669  15.6110  15.6135  15.6935  15.6985
    15.7875  15.8942  15.8985  15.9402  15.9531  15.9602  15.9679  15.9788
    15.9868  15.9904  15.9962  15.9984  15.9996  16.0046  16.0239  16.0272
    16.0484  16.0630  16.0692  16.0757  16.0826  16.1148  16.1185  16.1235
    16.1591  16.1670  16.2555  16.3091  16.3583  16.3652  16.3681  16.3790
    16.3930  16.4217  16.4621  16.4654  16.4665  16.4713  16.4978  16.5102
    16.5119  16.5152  16.5271  16.5282  16.5561  16.5851  16.5860  16.6988
    16.7404  16.7480  16.7795  16.7884  16.8024  16.8088  16.8451  16.8667
    16.8671  16.8913  16.9025  16.9247  17.0079  17.0431  17.1571  17.1593
    17.4517  17.4850  17.5136  17.5150  17.5274  17.5545  17.5666  17.6799
    17.7007  17.7329  17.7478  17.7537  17.7668  17.7711  17.7736  17.8027
    17.8032  17.8577  17.8625  17.8653  17.8659  17.8712  17.8887  17.8927
    17.8948  17.8987  17.9419  17.9459  17.9716  18.0448  18.1696  18.1721
    18.1938  18.2017  18.2041  18.2082  18.2134  18.2151  18.2200  18.2283
    18.2615  18.3032  18.3380  18.3444  18.3571  18.4348  18.4501  18.4675
    18.4891  18.4924  18.5161  18.5200  18.5472  18.5507  18.5531  18.5765
    18.6636  18.7524  18.8002  18.8093  18.8174  18.8344  18.8450  18.8691
    18.8786  18.9181  18.9221  18.9275  18.9304  18.9382  18.9389  18.9394
    18.9476  18.9542  18.9604  18.9708  18.9906  19.0485  19.0569  19.2479
    19.2811  19.3594  19.3600  19.3646  19.3727  19.3879  19.3906  19.3916
    19.3961  19.3971  19.4000  19.4005  19.4021  19.4059  19.4096  19.4103
    19.4175  19.4182  19.4602  19.4819  19.5314  19.5426  19.5467  19.5540
    19.5721  19.5814  19.6024  19.7117  19.7129  19.7237  19.7532  19.7698
    19.7811  19.7825  19.7906  19.7912  19.8001  19.8025  19.8036  19.8064
    19.8164  19.8172  19.8199  19.8254  19.8281  19.8480  19.8613  19.8641
    19.8945  19.9083  19.9130  19.9202  19.9366  19.9436  19.9554  19.9694
    19.9791  19.9801  19.9848  20.0017  20.0071  20.0151  20.0218  20.0273
    20.0288  20.0329  20.0448  20.0554  20.0558  20.1342  20.1923  20.2153
    20.2409  20.2666  20.3039  20.3044  20.3048  20.3271  20.4836  20.5519
    20.5962  20.6019  20.6484  20.7180  20.7670  20.7968  20.8290  20.8408
    20.8417  20.8565  20.8657  20.8713  20.8868  20.9534  20.9845  21.0822
    21.1072  21.1208  21.1282  21.1315  21.1361  21.1505  21.1660  21.1736
    21.1747  21.1754  21.1975  21.2076  21.2154  21.2240  21.2280  21.2374
    21.2413  21.2426  21.2606  21.2652  21.2855  21.2858  21.2883  21.2896
    21.2904  21.2972  21.3008  21.3021  21.3068  21.3145  21.3205  21.3223
    21.3324  21.3566  21.3757  21.3796  21.3820  21.3897  21.4011  21.4085
    21.4168  21.4200  21.4308  21.4490  21.4626  21.4982  21.5340  21.5374
    21.5431  21.5650  21.5738  21.5739  21.6820  21.6853  21.7533  21.7647
    21.7701  21.7892  21.7906  21.8013  21.8068  21.8071  21.8107  21.8158
    21.8729  21.8808  21.8923  21.8975  21.9234  21.9271  21.9773  22.0117
    22.0601  22.1580  22.1644  22.2036  22.2261  22.2279  22.2606  22.2875
    22.3000  22.3114  22.3167  22.3219  22.4135  22.4272  22.4606  22.5911
    22.6046  22.6207  22.6661  22.7211  22.7251  22.7614  22.7640  22.7660
    22.7660  22.7963  22.8084  22.8167  22.8532  22.8719  22.9091  22.9796
    23.0130  23.0541  23.0552  23.0610  23.0838  23.1004  23.1011  23.1044
    23.1139  23.1168  23.1225  23.1482  23.1483  23.1544  23.1650  23.1658
    23.1718  23.1983  23.2177  23.2267  23.2571  23.2784  23.3015  23.3054
    23.3313  23.4049  23.4296  23.4754  23.4795  23.4805  23.4908  23.4989
    23.5125  23.5230  23.5486  23.5556  23.5606  23.5632  23.5673  23.5751
    23.5957  23.6479  23.6583  23.6982  23.7051  23.7054  23.7184  23.7255
    23.7443  23.7732  23.7951  23.7983  23.8560  23.8794  23.9594  23.9665
    23.9862  24.0207  24.0518  24.0574  24.0690  24.0806  24.0911  24.1165
    24.1427  24.1469  24.1681  24.2222  24.2281  24.2875  24.3315  24.3611
    24.3828  24.3935  24.3956  24.3995  24.4011  24.4186  24.4190  24.4343
    24.4525  24.4580  24.5038  24.5609  24.5936  24.5940  24.6039  24.6087
    24.6193  24.6349  24.6703  24.6912  24.7075  24.7486  24.7491  24.7744
    24.7815  24.7994  24.8356  24.8418  24.8434  24.8473  24.8624  24.8838
    24.8841  24.8880  24.9490  24.9699  24.9781  25.0138  25.0506  25.0569
    25.1162  25.1403  25.1644  25.2271  25.2845  25.2893  25.2898  25.3042
    25.3060  25.3066  25.3082  25.3173  25.3179  25.3290  25.3433  25.3603
    25.3679  25.3744  25.4317  25.4464  25.4718  25.4895  25.5005  25.5026
    25.5027  25.5554  25.5658  25.5854  25.6121  25.6124  25.6560  25.6751
    25.6843  25.7005  25.7139  25.7302  25.7532  25.7535  25.7618  25.7726
    25.7750  25.7778  25.7837  25.7890  25.7963  25.7979  25.8009  25.8078
    25.8277  25.8797  25.8839  25.8972  25.9007  25.9124  25.9422  25.9497
    25.9647  25.9730  25.9895  25.9897  26.0066  26.0089  26.0280  26.0327
    26.0511  26.0617  26.0731  26.1276  26.1606  26.1983  26.2319  26.2443
    26.2954  26.3132  26.3176  26.3395  26.3535  26.3600  26.3645  26.3797
    26.3837  26.3842  26.4312  26.4961  26.5232  26.5583  26.5731  26.5829
    26.6884  26.6998  26.7450  26.7531  26.7635  26.8308  26.9123  26.9752
    26.9862  26.9932  26.9945  26.9968  27.0147  27.0400  27.0545  27.0593
    27.0649  27.0875  27.1012  27.1041  27.1080  27.1175  27.1536  27.1566
    27.1761  27.1809  27.1908  27.1959  27.2016  27.2021  27.2048  27.2137
    27.2182  27.2216  27.2233  27.2241  27.2270  27.2297  27.2310  27.2324
    27.2365  27.2366  27.2373  27.2411  27.2479  27.2483  27.2518  27.2526
    27.2567  27.2618  27.2627  27.2636  27.2707  27.2800  27.2852  27.2915
    27.3190  27.3207  27.3566  27.3608  27.3750  27.3856  27.3901  27.3993
    27.4115  27.4234  27.4282  27.4338  27.4495  27.4523  27.4567  27.4801
    27.4934  27.4967  27.5099  27.5139  27.5150  27.5270  27.5277  27.5647
    27.5973  27.7136  27.7561  27.7585  27.8014  27.8205  27.8708  27.8795
    27.9000  27.9075  27.9094  27.9261  27.9505  28.0231  28.0733  28.1088
    28.1156  28.1251  28.1369  28.1502  28.1631  28.1703  28.2442  28.2648
    28.2719  28.3539  28.3651  28.3788  28.3941  28.4094  28.4240  28.4320
    28.4486  28.4502  28.4740  28.4793  28.4835  28.5009  28.5235  28.5343
    28.5369  28.5597  28.5821  28.5981  28.6211  28.6214  28.6292  28.6684
    28.6693  28.6849  28.6944  28.7096  28.7204  28.7227  28.7467  28.7552
    28.7699  28.7829  28.8139  28.8182  28.8527  28.8847  28.8991  28.9534
    28.9776  29.0033  29.0414  29.0493  29.0782  29.1166  29.1202  29.1328
    29.1415  29.1515  29.2236  29.2306  29.2337  29.3165  29.3325  29.3338
    29.3402  29.3665  29.4386  29.4685  29.5095  29.5211  29.5274  29.5293
    29.5485  29.5562  29.5564  29.5821  29.6578  29.7442  29.7976  29.8195
    29.8293  29.8579  29.8633  29.8679  29.8736  29.8742  29.8844  29.8894
    29.8911  29.8926  29.8949  29.8969  29.8969  29.9050  29.9107  29.9124
    29.9228  29.9257  29.9495  29.9565  29.9913  29.9914  30.0020  30.0136
    30.0166  30.0378  30.0440  30.0489  30.0631  30.0644  30.0887  30.0924
    30.1049  30.1115  30.1176  30.1192  30.1221  30.1336  30.2511  30.2706
    30.3039  30.3379  30.3610  30.3700  30.3810  30.3871  30.4250  30.4274
    30.4519  30.4768  30.4789  30.4940  30.4976  30.5118  30.5138  30.5211
    30.5222  30.5279  30.5297  30.5318  30.5378  30.5396  30.5414  30.5432
    30.5442  30.5488  30.5593  30.5612  30.5639  30.5640  30.5705  30.5807
    30.6005  30.6084  30.6285  30.6725  30.7183  30.7350  30.7399  30.7848
    30.7956  30.7995  30.8127  30.8392  30.8565  30.8686  30.8817  30.8912
    30.9251  30.9541  30.9761  30.9795  30.9802  31.0427  31.0654  31.0877
    31.1286  31.1615  31.1669  31.1802  31.2827  31.2940  31.3135  31.3233
    31.5327  31.5404  31.5441  31.5540  31.5625  31.5687  31.6371  31.6507
    31.6857  31.7076  31.7165  31.7237  31.7467  31.7502  31.7841  31.7846
    31.8203  31.8242  31.8303  31.8541  31.8552  31.8617  31.8684  31.8888
    31.8902  31.9089  31.9412  31.9444  31.9485  31.9565  31.9580  31.9668
    31.9742  31.9780  31.9972  31.9983  32.0033  32.0175  32.0196  32.0694
    32.1056  32.1061  32.1075  32.1118  32.1208  32.1361  32.1453  32.1471
    32.1609  32.1676  32.1701  32.2256  32.2540  32.2902  32.3453  32.3610
    32.3616  32.3798  32.3801  32.4092  32.4160  32.4410  32.4431  32.4655
    32.4663  32.4671  32.4705  32.4991  32.5082  32.5175  32.5265  32.5276
    32.5282  32.5461  32.5713  32.6041  32.6150  32.6452  32.6513  32.6643
    32.6751  32.7321  32.7348  32.7615  32.7852  32.7871  32.7947  32.8305
    32.8312  32.8403  32.8625  32.8671  32.8778  32.8840  32.8893  32.8911
    32.8941  32.9109  32.9274  32.9293  32.9332  32.9653  33.0096  33.1016
    33.1118  33.2237  33.2534  33.2726  33.2809  33.2874  33.3012  33.3083
    33.3305  33.3569  33.4264  33.4522  33.4616  33.4658  33.4718  33.4864
    33.4988  33.5049  33.5181  33.5590  33.5613  33.5721  33.6017  33.6263
    33.6725  33.6848  33.6970  33.6994  33.7031  33.7414  33.8691  33.9053
    33.9076  33.9080  33.9149  33.9384  33.9583  33.9755  34.0437  34.1097
    34.1113  34.1257  34.1637  34.1826  34.2135  34.2298  34.2405  34.2577
    34.2597  34.2639  34.2709  34.2748  34.2759  34.2787  34.2863  34.2875
    34.2884  34.2973  34.2975  34.3016  34.3567  34.3582  34.3708  34.3999
    34.4463  34.4613  34.4625  34.4678  34.4976  34.5630  34.5739  34.5861
    34.5866  34.5904  34.5944  34.6046  34.6106  34.6177  34.6587  34.6640
    34.6653  34.6873  34.6888  34.6912  34.6974  34.7003  34.7134  34.7174
    34.7256  34.7323  34.7485  34.7526  34.8125  34.9448  34.9702  35.0341
    35.0729  35.0817  35.1047  35.1511  35.1517  35.1633  35.1674  35.1706
    35.1714  35.1730  35.1759  35.1774  35.1808  35.1823  35.1941  35.2076
    35.2124  35.2170  35.2387  35.2632  35.2703  35.3172  35.3212  35.3615
    35.3736  35.3740  35.3799  35.3876  35.3956  35.4109  35.4131  35.4497
    35.4515  35.4746  35.4758  35.4798  35.4870  35.4880  35.4885  35.4898
    35.4976  35.5020  35.5067  35.5127  35.5175  35.5297  35.5349  35.5481
    35.5628  35.5684  35.5728  35.5735  35.5779  35.5886  35.5981  35.6217
    35.6341  35.6416  35.6561  35.6893  35.7103  35.7685

     occupation numbers 
     1.0000   1.0000   1.0000   1.0000   1.0000   1.0000   1.0000   1.0000
     1.0000   1.0000   1.0000   1.0000   1.0000   1.0000   1.0000   1.0000
     1.0000   1.0000   1.0000   1.0000   1.0000   1.0000   1.0000   1.0000
     1.0000   1.0000   1.0000   1.0000   1.0000   1.0000   1.0000   1.0000
     1.0000   1.0000   1.0000   1.0000   1.0000   1.0000   1.0000   1.0000
     1.0000   1.0000   1.0000   1.0000   1.0000   1.0000   1.0000   1.0000
     1.0000   1.0000   1.0000   1.0000   1.0000   1.0000   1.0000   1.0000
     1.0000   1.0000   1.0000   1.0000   1.0000   1.0000   1.0000   1.0000
     1.0000   1.0000   1.0000   1.0000   1.0000   1.0000   1.0000   1.0000
     1.0000   1.0000   1.0000   1.0000   1.0000   1.0000   1.0000   1.0000
     1.0000   1.0000   1.0000   1.0000   1.0000   1.0000   1.0000   1.0000
     1.0000   1.0000   1.0000   1.0000   1.0000   1.0000   1.0000   1.0000
     1.0000   1.0000   1.0000   1.0000   1.0000   1.0000   1.0000   1.0000
     1.0000   1.0000   1.0000   1.0000   1.0000   1.0000   1.0000   1.0000
     1.0000   1.0000   1.0000   1.0000   1.0000   1.0000   1.0000   1.0000
     1.0000   1.0000   1.0000   1.0000   1.0000   1.0000   1.0000   1.0000
     1.0000   1.0000   1.0000   1.0000   1.0000   1.0000   1.0000   1.0000
     1.0000   1.0000   1.0000   1.0000   1.0000   1.0000   1.0000   0.0000
     0.0000   0.0000   0.0000   0.0000   0.0000   0.0000   0.0000   0.0000
     0.0000   0.0000   0.0000   0.0000   0.0000   0.0000   0.0000   0.0000
     0.0000   0.0000   0.0000   0.0000   0.0000   0.0000   0.0000   0.0000
     0.0000   0.0000   0.0000   0.0000   0.0000   0.0000   0.0000   0.0000
     0.0000   0.0000   0.0000   0.0000   0.0000   0.0000   0.0000   0.0000
     0.0000   0.0000   0.0000   0.0000   0.0000   0.0000   0.0000   0.0000
     0.0000   0.0000   0.0000   0.0000   0.0000   0.0000   0.0000   0.0000
     0.0000   0.0000   0.0000   0.0000   0.0000   0.0000   0.0000   0.0000
     0.0000   0.0000   0.0000   0.0000   0.0000   0.0000   0.0000   0.0000
     0.0000   0.0000   0.0000   0.0000   0.0000   0.0000   0.0000   0.0000
     0.0000   0.0000   0.0000   0.0000   0.0000   0.0000   0.0000   0.0000
     0.0000   0.0000   0.0000   0.0000   0.0000   0.0000   0.0000   0.0000
     0.0000   0.0000   0.0000   0.0000   0.0000   0.0000   0.0000   0.0000
     0.0000   0.0000   0.0000   0.0000   0.0000   0.0000   0.0000   0.0000
     0.0000   0.0000   0.0000   0.0000   0.0000   0.0000   0.0000   0.0000
     0.0000   0.0000   0.0000   0.0000   0.0000   0.0000   0.0000   0.0000
     0.0000   0.0000   0.0000   0.0000   0.0000   0.0000   0.0000   0.0000
     0.0000   0.0000   0.0000   0.0000   0.0000   0.0000   0.0000   0.0000
     0.0000   0.0000   0.0000   0.0000   0.0000   0.0000   0.0000   0.0000
     0.0000   0.0000   0.0000   0.0000   0.0000   0.0000   0.0000   0.0000
     0.0000   0.0000   0.0000   0.0000   0.0000   0.0000   0.0000   0.0000
     0.0000   0.0000   0.0000   0.0000   0.0000   0.0000   0.0000   0.0000
     0.0000   0.0000   0.0000   0.0000   0.0000   0.0000   0.0000   0.0000
     0.0000   0.0000   0.0000   0.0000   0.0000   0.0000   0.0000   0.0000
     0.0000   0.0000   0.0000   0.0000   0.0000   0.0000   0.0000   0.0000
     0.0000   0.0000   0.0000   0.0000   0.0000   0.0000   0.0000   0.0000
     0.0000   0.0000   0.0000   0.0000   0.0000   0.0000   0.0000   0.0000
     0.0000   0.0000   0.0000   0.0000   0.0000   0.0000   0.0000   0.0000
     0.0000   0.0000   0.0000   0.0000   0.0000   0.0000   0.0000   0.0000
     0.0000   0.0000   0.0000   0.0000   0.0000   0.0000   0.0000   0.0000
     0.0000   0.0000   0.0000   0.0000   0.0000   0.0000   0.0000   0.0000
     0.0000   0.0000   0.0000   0.0000   0.0000   0.0000   0.0000   0.0000
     0.0000   0.0000   0.0000   0.0000   0.0000   0.0000   0.0000   0.0000
     0.0000   0.0000   0.0000   0.0000   0.0000   0.0000   0.0000   0.0000
     0.0000   0.0000   0.0000   0.0000   0.0000   0.0000   0.0000   0.0000
     0.0000   0.0000   0.0000   0.0000   0.0000   0.0000   0.0000   0.0000
     0.0000   0.0000   0.0000   0.0000   0.0000   0.0000   0.0000   0.0000
     0.0000   0.0000   0.0000   0.0000   0.0000   0.0000   0.0000   0.0000
     0.0000   0.0000   0.0000   0.0000   0.0000   0.0000   0.0000   0.0000
     0.0000   0.0000   0.0000   0.0000   0.0000   0.0000   0.0000   0.0000
     0.0000   0.0000   0.0000   0.0000   0.0000   0.0000   0.0000   0.0000
     0.0000   0.0000   0.0000   0.0000   0.0000   0.0000   0.0000   0.0000
     0.0000   0.0000   0.0000   0.0000   0.0000   0.0000   0.0000   0.0000
     0.0000   0.0000   0.0000   0.0000   0.0000   0.0000   0.0000   0.0000
     0.0000   0.0000   0.0000   0.0000   0.0000   0.0000   0.0000   0.0000
     0.0000   0.0000   0.0000   0.0000   0.0000   0.0000   0.0000   0.0000
     0.0000   0.0000   0.0000   0.0000   0.0000   0.0000   0.0000   0.0000
     0.0000   0.0000   0.0000   0.0000   0.0000   0.0000   0.0000   0.0000
     0.0000   0.0000   0.0000   0.0000   0.0000   0.0000   0.0000   0.0000
     0.0000   0.0000   0.0000   0.0000   0.0000   0.0000   0.0000   0.0000
     0.0000   0.0000   0.0000   0.0000   0.0000   0.0000   0.0000   0.0000
     0.0000   0.0000   0.0000   0.0000   0.0000   0.0000   0.0000   0.0000
     0.0000   0.0000   0.0000   0.0000   0.0000   0.0000   0.0000   0.0000
     0.0000   0.0000   0.0000   0.0000   0.0000   0.0000   0.0000   0.0000
     0.0000   0.0000   0.0000   0.0000   0.0000   0.0000   0.0000   0.0000
     0.0000   0.0000   0.0000   0.0000   0.0000   0.0000   0.0000   0.0000
     0.0000   0.0000   0.0000   0.0000   0.0000   0.0000   0.0000   0.0000
     0.0000   0.0000   0.0000   0.0000   0.0000   0.0000   0.0000   0.0000
     0.0000   0.0000   0.0000   0.0000   0.0000   0.0000   0.0000   0.0000
     0.0000   0.0000   0.0000   0.0000   0.0000   0.0000   0.0000   0.0000
     0.0000   0.0000   0.0000   0.0000   0.0000   0.0000   0.0000   0.0000
     0.0000   0.0000   0.0000   0.0000   0.0000   0.0000   0.0000   0.0000
     0.0000   0.0000   0.0000   0.0000   0.0000   0.0000   0.0000   0.0000
     0.0000   0.0000   0.0000   0.0000   0.0000   0.0000   0.0000   0.0000
     0.0000   0.0000   0.0000   0.0000   0.0000   0.0000   0.0000   0.0000
     0.0000   0.0000   0.0000   0.0000   0.0000   0.0000   0.0000   0.0000
     0.0000   0.0000   0.0000   0.0000   0.0000   0.0000   0.0000   0.0000
     0.0000   0.0000   0.0000   0.0000   0.0000   0.0000   0.0000   0.0000
     0.0000   0.0000   0.0000   0.0000   0.0000   0.0000   0.0000   0.0000
     0.0000   0.0000   0.0000   0.0000   0.0000   0.0000   0.0000   0.0000
     0.0000   0.0000   0.0000   0.0000   0.0000   0.0000   0.0000   0.0000
     0.0000   0.0000   0.0000   0.0000   0.0000   0.0000   0.0000   0.0000
     0.0000   0.0000   0.0000   0.0000   0.0000   0.0000   0.0000   0.0000
     0.0000   0.0000   0.0000   0.0000   0.0000   0.0000   0.0000   0.0000
     0.0000   0.0000   0.0000   0.0000   0.0000   0.0000   0.0000   0.0000
     0.0000   0.0000   0.0000   0.0000   0.0000   0.0000   0.0000   0.0000
     0.0000   0.0000   0.0000   0.0000   0.0000   0.0000   0.0000   0.0000
     0.0000   0.0000   0.0000   0.0000   0.0000   0.0000   0.0000   0.0000
     0.0000   0.0000   0.0000   0.0000   0.0000   0.0000   0.0000   0.0000
     0.0000   0.0000   0.0000   0.0000   0.0000   0.0000   0.0000   0.0000
     0.0000   0.0000   0.0000   0.0000   0.0000   0.0000   0.0000   0.0000
     0.0000   0.0000   0.0000   0.0000   0.0000   0.0000   0.0000   0.0000
     0.0000   0.0000   0.0000   0.0000   0.0000   0.0000   0.0000   0.0000
     0.0000   0.0000   0.0000   0.0000   0.0000   0.0000   0.0000   0.0000
     0.0000   0.0000   0.0000   0.0000   0.0000   0.0000   0.0000   0.0000
     0.0000   0.0000   0.0000   0.0000   0.0000   0.0000   0.0000   0.0000
     0.0000   0.0000   0.0000   0.0000   0.0000   0.0000   0.0000   0.0000
     0.0000   0.0000   0.0000   0.0000   0.0000   0.0000   0.0000   0.0000
     0.0000   0.0000   0.0000   0.0000   0.0000   0.0000   0.0000   0.0000
     0.0000   0.0000   0.0000   0.0000   0.0000   0.0000   0.0000   0.0000
     0.0000   0.0000   0.0000   0.0000   0.0000   0.0000   0.0000   0.0000
     0.0000   0.0000   0.0000   0.0000   0.0000   0.0000   0.0000   0.0000
     0.0000   0.0000   0.0000   0.0000   0.0000   0.0000   0.0000   0.0000
     0.0000   0.0000   0.0000   0.0000   0.0000   0.0000   0.0000   0.0000
     0.0000   0.0000   0.0000   0.0000   0.0000   0.0000   0.0000   0.0000
     0.0000   0.0000   0.0000   0.0000   0.0000   0.0000   0.0000   0.0000
     0.0000   0.0000   0.0000   0.0000   0.0000   0.0000   0.0000   0.0000
     0.0000   0.0000   0.0000   0.0000   0.0000   0.0000   0.0000   0.0000
     0.0000   0.0000   0.0000   0.0000   0.0000   0.0000   0.0000   0.0000
     0.0000   0.0000   0.0000   0.0000   0.0000   0.0000   0.0000   0.0000
     0.0000   0.0000   0.0000   0.0000   0.0000   0.0000   0.0000   0.0000
     0.0000   0.0000   0.0000   0.0000   0.0000   0.0000   0.0000   0.0000
     0.0000   0.0000   0.0000   0.0000   0.0000   0.0000   0.0000   0.0000
     0.0000   0.0000   0.0000   0.0000   0.0000   0.0000   0.0000   0.0000
     0.0000   0.0000   0.0000   0.0000   0.0000   0.0000   0.0000   0.0000
     0.0000   0.0000   0.0000   0.0000   0.0000   0.0000   0.0000   0.0000
     0.0000   0.0000   0.0000   0.0000   0.0000   0.0000   0.0000   0.0000
     0.0000   0.0000   0.0000   0.0000   0.0000   0.0000   0.0000   0.0000
     0.0000   0.0000   0.0000   0.0000   0.0000   0.0000   0.0000   0.0000
     0.0000   0.0000   0.0000   0.0000   0.0000   0.0000   0.0000   0.0000
     0.0000   0.0000   0.0000   0.0000   0.0000   0.0000   0.0000   0.0000
     0.0000   0.0000   0.0000   0.0000   0.0000   0.0000   0.0000   0.0000
     0.0000   0.0000   0.0000   0.0000   0.0000   0.0000   0.0000   0.0000
     0.0000   0.0000   0.0000   0.0000   0.0000   0.0000   0.0000   0.0000
     0.0000   0.0000   0.0000   0.0000   0.0000   0.0000   0.0000   0.0000
     0.0000   0.0000   0.0000   0.0000   0.0000   0.0000   0.0000   0.0000
     0.0000   0.0000   0.0000   0.0000   0.0000   0.0000   0.0000   0.0000
     0.0000   0.0000   0.0000   0.0000   0.0000   0.0000   0.0000   0.0000
     0.0000   0.0000   0.0000   0.0000   0.0000   0.0000   0.0000   0.0000
     0.0000   0.0000   0.0000   0.0000   0.0000   0.0000   0.0000   0.0000
     0.0000   0.0000   0.0000   0.0000   0.0000   0.0000   0.0000   0.0000
     0.0000   0.0000   0.0000   0.0000   0.0000   0.0000   0.0000   0.0000
     0.0000   0.0000   0.0000   0.0000   0.0000   0.0000   0.0000   0.0000
     0.0000   0.0000   0.0000   0.0000   0.0000   0.0000   0.0000   0.0000
     0.0000   0.0000   0.0000   0.0000   0.0000   0.0000   0.0000   0.0000
     0.0000   0.0000   0.0000   0.0000   0.0000   0.0000   0.0000   0.0000
     0.0000   0.0000   0.0000   0.0000   0.0000   0.0000   0.0000   0.0000
     0.0000   0.0000   0.0000   0.0000   0.0000   0.0000   0.0000   0.0000
     0.0000   0.0000   0.0000   0.0000   0.0000   0.0000   0.0000   0.0000
     0.0000   0.0000   0.0000   0.0000   0.0000   0.0000   0.0000   0.0000
     0.0000   0.0000   0.0000   0.0000   0.0000   0.0000   0.0000   0.0000
     0.0000   0.0000   0.0000   0.0000   0.0000   0.0000   0.0000   0.0000
     0.0000   0.0000   0.0000   0.0000   0.0000   0.0000   0.0000   0.0000
     0.0000   0.0000   0.0000   0.0000   0.0000   0.0000   0.0000   0.0000
     0.0000   0.0000   0.0000   0.0000   0.0000   0.0000   0.0000   0.0000
     0.0000   0.0000   0.0000   0.0000   0.0000   0.0000   0.0000   0.0000
     0.0000   0.0000   0.0000   0.0000   0.0000   0.0000   0.0000   0.0000
     0.0000   0.0000   0.0000   0.0000   0.0000   0.0000   0.0000   0.0000
     0.0000   0.0000   0.0000   0.0000   0.0000   0.0000   0.0000   0.0000
     0.0000   0.0000   0.0000   0.0000   0.0000   0.0000   0.0000   0.0000
     0.0000   0.0000   0.0000   0.0000   0.0000   0.0000   0.0000   0.0000
     0.0000   0.0000   0.0000   0.0000   0.0000   0.0000   0.0000   0.0000
     0.0000   0.0000   0.0000   0.0000   0.0000   0.0000   0.0000   0.0000
     0.0000   0.0000   0.0000   0.0000   0.0000   0.0000   0.0000   0.0000
     0.0000   0.0000   0.0000   0.0000   0.0000   0.0000   0.0000   0.0000
     0.0000   0.0000   0.0000   0.0000   0.0000   0.0000   0.0000   0.0000
     0.0000   0.0000   0.0000   0.0000   0.0000   0.0000   0.0000   0.0000
     0.0000   0.0000   0.0000   0.0000   0.0000   0.0000   0.0000   0.0000
     0.0000   0.0000   0.0000   0.0000   0.0000   0.0000   0.0000   0.0000
     0.0000   0.0000   0.0000   0.0000   0.0000   0.0000   0.0000   0.0000
     0.0000   0.0000   0.0000   0.0000   0.0000   0.0000   0.0000   0.0000
     0.0000   0.0000   0.0000   0.0000   0.0000   0.0000   0.0000   0.0000
     0.0000   0.0000   0.0000   0.0000   0.0000   0.0000   0.0000   0.0000
     0.0000   0.0000   0.0000   0.0000   0.0000   0.0000   0.0000   0.0000
     0.0000   0.0000   0.0000   0.0000   0.0000   0.0000   0.0000   0.0000
     0.0000   0.0000   0.0000   0.0000   0.0000   0.0000   0.0000   0.0000
     0.0000   0.0000   0.0000   0.0000   0.0000   0.0000   0.0000   0.0000
     0.0000   0.0000   0.0000   0.0000   0.0000   0.0000   0.0000   0.0000
     0.0000   0.0000   0.0000   0.0000   0.0000   0.0000   0.0000   0.0000
     0.0000   0.0000   0.0000   0.0000   0.0000   0.0000   0.0000   0.0000
     0.0000   0.0000   0.0000   0.0000   0.0000   0.0000   0.0000   0.0000
     0.0000   0.0000   0.0000   0.0000   0.0000   0.0000   0.0000   0.0000
     0.0000   0.0000   0.0000   0.0000   0.0000   0.0000   0.0000   0.0000
     0.0000   0.0000   0.0000   0.0000   0.0000   0.0000   0.0000   0.0000
     0.0000   0.0000   0.0000   0.0000   0.0000   0.0000   0.0000   0.0000
     0.0000   0.0000   0.0000   0.0000   0.0000   0.0000   0.0000   0.0000
     0.0000   0.0000   0.0000   0.0000   0.0000   0.0000   0.0000   0.0000
     0.0000   0.0000   0.0000   0.0000   0.0000   0.0000   0.0000   0.0000
     0.0000   0.0000   0.0000   0.0000   0.0000   0.0000   0.0000   0.0000
     0.0000   0.0000   0.0000   0.0000   0.0000   0.0000   0.0000   0.0000
     0.0000   0.0000   0.0000   0.0000   0.0000   0.0000   0.0000   0.0000
     0.0000   0.0000   0.0000   0.0000   0.0000   0.0000   0.0000   0.0000
     0.0000   0.0000   0.0000   0.0000   0.0000   0.0000   0.0000   0.0000
     0.0000   0.0000   0.0000   0.0000   0.0000   0.0000   0.0000   0.0000
     0.0000   0.0000   0.0000   0.0000   0.0000   0.0000   0.0000   0.0000
     0.0000   0.0000   0.0000   0.0000   0.0000   0.0000   0.0000   0.0000
     0.0000   0.0000   0.0000   0.0000   0.0000   0.0000   0.0000   0.0000
     0.0000   0.0000   0.0000   0.0000   0.0000   0.0000   0.0000   0.0000
     0.0000   0.0000   0.0000   0.0000   0.0000   0.0000   0.0000   0.0000
     0.0000   0.0000   0.0000   0.0000   0.0000   0.0000   0.0000   0.0000
     0.0000   0.0000   0.0000   0.0000   0.0000   0.0000   0.0000   0.0000
     0.0000   0.0000   0.0000   0.0000   0.0000   0.0000   0.0000   0.0000
     0.0000   0.0000   0.0000   0.0000   0.0000   0.0000   0.0000   0.0000
     0.0000   0.0000   0.0000   0.0000   0.0000   0.0000   0.0000   0.0000
     0.0000   0.0000   0.0000   0.0000   0.0000   0.0000   0.0000   0.0000
     0.0000   0.0000   0.0000   0.0000   0.0000   0.0000   0.0000   0.0000
     0.0000   0.0000   0.0000   0.0000   0.0000   0.0000   0.0000   0.0000
     0.0000   0.0000   0.0000   0.0000   0.0000   0.0000   0.0000   0.0000
     0.0000   0.0000   0.0000   0.0000   0.0000   0.0000   0.0000   0.0000
     0.0000   0.0000   0.0000   0.0000   0.0000   0.0000   0.0000   0.0000
     0.0000   0.0000   0.0000   0.0000   0.0000   0.0000   0.0000   0.0000
     0.0000   0.0000   0.0000   0.0000   0.0000   0.0000   0.0000   0.0000
     0.0000   0.0000   0.0000   0.0000   0.0000   0.0000   0.0000   0.0000
     0.0000   0.0000   0.0000   0.0000   0.0000   0.0000   0.0000   0.0000
     0.0000   0.0000   0.0000   0.0000   0.0000   0.0000   0.0000   0.0000
     0.0000   0.0000   0.0000   0.0000   0.0000   0.0000

          k = 0.0000 0.3849 0.0000 (216688 PWs)   bands (ev):

   -23.6658 -21.1871 -21.0422 -20.8456 -20.7087 -20.5719 -20.4101 -20.3678
   -20.1918 -20.0093 -19.9038 -19.6917 -19.6240 -19.5621 -19.4031 -19.2623
   -19.1391 -19.0581 -18.9320 -18.8304 -18.7928 -18.6931 -18.5917 -18.4702
   -18.3853 -18.3161 -18.2790 -18.2521 -18.1513 -18.1005 -18.0535 -18.0023
   -17.8965 -17.7890 -17.6591 -15.1306 -12.5610 -12.4686 -12.3499 -12.2548
   -12.2013 -12.1583 -12.0336 -11.9293 -11.7773 -11.7038 -11.6205 -11.5453
   -11.5361 -11.3747 -11.3264 -11.2113 -11.0449 -11.0175 -10.8571 -10.6491
   -10.5327 -10.3237 -10.2239 -10.0286  -9.9560  -9.9223  -9.7659  -9.6378
    -9.5853  -9.4944  -9.4061  -9.2572  -9.1704  -9.1488  -8.9224  -8.8540
    -8.7284  -8.6815  -8.5580  -8.5059  -8.4819  -8.4331  -8.3628  -8.3100
    -8.2758  -8.2684  -8.2139  -8.1610  -8.0728  -8.0149  -7.9737  -7.8488
    -7.8277  -7.7716  -7.6826  -7.6798  -7.6325  -7.5504  -7.5066  -7.5027
    -7.4555  -7.3781  -7.3716  -7.2561  -7.1758  -7.0815  -7.0229  -6.9016
    -6.8756  -6.7641  -6.7067  -6.6343  -6.6088  -6.5630  -6.4624  -6.3766
    -6.3152  -6.2567  -6.1844  -6.1011  -6.0226  -5.8744  -5.8087  -5.7503
    -5.6388  -5.5515  -5.5202  -5.5135  -5.3954  -5.3137  -5.2822  -5.1663
    -5.1649  -4.9131  -4.8280  -4.7443  -4.6947  -4.6259  -4.5393  -4.4523
    -4.3315  -4.2525  -4.1954  -3.9350  -3.8300  -3.0093  -1.8396   0.2034
     1.1050   1.1290   1.1523   1.2141   1.2574   1.2819   1.3303   1.4199
     1.4447   1.4497   1.5994   1.6424   1.7255   1.7893   1.9031   2.0640
     2.0921   2.2152   2.3030   2.3423   2.3558   2.3839   2.4449   2.5867
     2.5961   2.6085   2.6319   2.6537   2.7222   2.8772   2.8892   2.9218
     2.9474   3.0581   3.1622   3.1792   3.1938   3.2024   3.4033   3.4150
     3.4716   3.6073   3.6389   3.6693   3.6802   3.7422   3.7616   3.7659
     3.7832   3.8271   3.8878   3.9104   4.0055   4.0163   4.0619   4.1460
     4.1978   4.3530   4.3766   4.3932   4.4501   4.5807   4.6059   4.6648
     4.6808   4.7671   4.8240   4.9301   5.0099   5.0550   5.0811   5.0977
     5.1244   5.1810   5.2256   5.2310   5.2390   5.2590   5.2838   5.3291
     5.3325   5.3401   5.3834   5.4058   5.4449   5.4962   5.5134   5.6744
     5.7066   5.7967   5.8023   5.8345   5.8437   5.8989   5.9111   6.0425
     6.0714   6.1121   6.1337   6.1757   6.1804   6.3153   6.3403   6.3757
     6.4335   6.4801   6.4943   6.5448   6.5759   6.6507   6.7012   6.7192
     6.7455   6.7551   6.7847   6.8070   6.8118   6.8411   6.8636   6.8637
     6.8995   6.9206   6.9254   7.0263   7.0570   7.0777   7.0815   7.1179
     7.1284   7.1347   7.1375   7.1816   7.1850   7.2270   7.2452   7.2588
     7.2736   7.2857   7.3368   7.3558   7.3572   7.4157   7.4237   7.4648
     7.5322   7.5727   7.6353   7.6557   7.6798   7.7059   7.7776   7.7910
     7.8279   7.8356   7.8456   7.8559   7.8612   7.8985   7.9295   7.9989
     8.0151   8.0324   8.0551   8.0812   8.0995   8.1165   8.1190   8.1525
     8.1962   8.2254   8.2464   8.2828   8.3306   8.3455   8.3502   8.3722
     8.3767   8.4085   8.4272   8.4430   8.4512   8.4694   8.5414   8.6264
     8.6809   8.7244   8.7541   8.7544   8.8102   8.8189   8.8336   8.8401
     8.8574   8.8963   8.8969   8.9383   8.9670   8.9875   9.0197   9.0352
     9.0495   9.0659   9.0847   9.1038   9.1045   9.1220   9.1310   9.1534
     9.1541   9.1885   9.2288   9.2347   9.2615   9.2909   9.3098   9.3276
     9.3463   9.3651   9.3816   9.4251   9.4757   9.5148   9.5235   9.5732
     9.5903   9.6263   9.6410   9.6483   9.6547   9.6648   9.6909   9.7018
     9.7158   9.7276   9.7384   9.7694   9.8084   9.8611   9.9150   9.9481
     9.9784   9.9835  10.0567  10.0816  10.1242  10.1611  10.1861  10.2011
    10.2234  10.2748  10.3197  10.3539  10.3618  10.3633  10.3761  10.3971
    10.4280  10.4623  10.4815  10.4902  10.5346  10.5495  10.5543  10.5756
    10.5935  10.6035  10.6227  10.6310  10.6469  10.6658  10.6793  10.6833
    10.6963  10.7823  10.8359  10.8537  10.9415  10.9911  11.0367  11.0525
    11.1105  11.1665  11.1758  11.2010  11.2025  11.2187  11.2314  11.2425
    11.2451  11.2855  11.3286  11.3382  11.3659  11.3926  11.3975  11.4118
    11.4133  11.4409  11.4602  11.4808  11.4906  11.5237  11.5582  11.5678
    11.5830  11.5918  11.6049  11.6452  11.6496  11.6744  11.6995  11.7273
    11.7275  11.7722  11.8050  11.8383  11.8656  11.8666  11.8746  11.8863
    11.9230  11.9261  11.9605  11.9799  11.9903  12.0176  12.0369  12.0778
    12.1193  12.1531  12.1820  12.2288  12.2658  12.2958  12.3064  12.3293
    12.3971  12.4062  12.4626  12.4833  12.5493  12.5625  12.5779  12.6221
    12.6333  12.6683  12.6937  12.7125  12.7275  12.7384  12.8121  12.9206
    12.9322  12.9618  12.9805  13.0232  13.0321  13.0793  13.0979  13.1440
    13.1770  13.2590  13.2998  13.3158  13.3327  13.3404  13.3450  13.3485
    13.3795  13.3870  13.3891  13.3997  13.4000  13.4044  13.4239  13.4570
    13.4621  13.4869  13.4908  13.5064  13.5117  13.5568  13.5569  13.5807
    13.5844  13.6024  13.6478  13.6821  13.7146  13.7666  13.7739  13.8093
    13.8589  13.8702  13.8862  13.9124  13.9217  13.9363  13.9948  14.0323
    14.0332  14.0411  14.0652  14.0851  14.0955  14.1114  14.1116  14.1349
    14.1449  14.1593  14.1884  14.2102  14.2408  14.2458  14.2816  14.3297
    14.3398  14.3683  14.3798  14.3992  14.4186  14.4226  14.4396  14.4735
    14.4768  14.4931  14.4938  14.5166  14.5447  14.5567  14.6255  14.6473
    14.6702  14.6950  14.7293  14.7476  14.7858  14.8694  14.8982  14.9174
    14.9272  14.9730  14.9790  14.9845  15.0022  15.0167  15.0312  15.0586
    15.0830  15.1016  15.1209  15.1455  15.1474  15.1838  15.2062  15.2094
    15.2187  15.2193  15.3018  15.3139  15.3160  15.3737  15.4091  15.4744
    15.4937  15.5281  15.5389  15.5502  15.5667  15.5731  15.5815  15.6193
    15.6237  15.6564  15.6686  15.6848  15.6934  15.6972  15.7036  15.7205
    15.7310  15.7479  15.7487  15.7715  15.7961  15.8215  15.8585  15.8761
    15.8880  15.9305  16.0171  16.0274  16.0900  16.1307  16.1622  16.1939
    16.2308  16.2649  16.2906  16.2944  16.3258  16.3565  16.3841  16.3965
    16.4136  16.4293  16.4357  16.4603  16.4625  16.4909  16.4940  16.5102
    16.5114  16.5472  16.5601  16.5843  16.5988  16.6036  16.6293  16.6384
    16.6472  16.6673  16.7077  16.7139  16.7252  16.7602  16.7972  16.8342
    16.8607  16.8639  16.8760  16.8810  16.9540  16.9608  16.9805  17.0458
    17.0998  17.1602  17.1688  17.1939  17.1975  17.2109  17.2281  17.2296
    17.2540  17.2732  17.2776  17.2785  17.3112  17.3494  17.3509  17.3784
    17.4365  17.4416  17.4590  17.4665  17.4875  17.5040  17.5274  17.5385
    17.5564  17.5708  17.6141  17.6337  17.6773  17.7384  17.7576  17.7638
    17.7995  17.8196  17.8417  17.8682  17.8871  17.8903  17.9115  17.9560
    17.9826  18.0163  18.0313  18.0681  18.0815  18.0864  18.1102  18.1183
    18.1608  18.1956  18.1965  18.2144  18.2224  18.2445  18.2657  18.2711
    18.2845  18.3022  18.3047  18.3383  18.3478  18.3695  18.3775  18.3985
    18.4033  18.4510  18.4648  18.4830  18.5021  18.5035  18.5166  18.5516
    18.5561  18.5865  18.6158  18.6474  18.6509  18.6767  18.7214  18.7438
    18.7595  18.7685  18.7740  18.7997  18.8177  18.8327  18.8742  18.8797
    18.9230  18.9852  19.0062  19.0304  19.0522  19.1024  19.1325  19.1390
    19.1421  19.1595  19.2079  19.2080  19.2507  19.2609  19.2685  19.2717
    19.3161  19.3391  19.3517  19.3646  19.3744  19.4065  19.4066  19.4426
    19.4439  19.4806  19.4910  19.5240  19.5326  19.5578  19.5722  19.5771
    19.5879  19.6296  19.6401  19.6504  19.6658  19.7000  19.7321  19.7473
    19.7473  19.8655  19.8926  19.9138  19.9290  19.9421  19.9637  20.0117
    20.0302  20.0474  20.0663  20.1039  20.1248  20.1686  20.1950  20.2086
    20.2411  20.2660  20.2956  20.3187  20.3382  20.3735  20.3901  20.3931
    20.4124  20.4228  20.4260  20.4339  20.4522  20.4749  20.4818  20.4918
    20.5128  20.5298  20.5433  20.5713  20.5810  20.6250  20.6315  20.6510
    20.6576  20.6852  20.6992  20.7029  20.7171  20.7407  20.7425  20.7662
    20.7802  20.7905  20.8221  20.8361  20.9039  20.9251  20.9757  20.9932
    21.0340  21.0416  21.0552  21.0615  21.0623  21.0673  21.0838  21.1263
    21.1482  21.1588  21.1843  21.2103  21.2369  21.3284  21.3363  21.3647
    21.3872  21.4208  21.4349  21.4406  21.4550  21.4674  21.4753  21.4907
    21.4923  21.5081  21.5245  21.5266  21.5423  21.5568  21.5664  21.5825
    21.5901  21.6066  21.6073  21.6447  21.6608  21.6853  21.7051  21.7056
    21.7314  21.7636  21.7641  21.7918  21.8051  21.8235  21.8384  21.8573
    21.8797  21.9008  21.9216  21.9321  21.9490  21.9606  21.9621  21.9812
    21.9985  21.9985  22.0229  22.0398  22.0477  22.0544  22.0746  22.1066
    22.1138  22.1237  22.1262  22.1382  22.1690  22.1819  22.1900  22.2163
    22.2286  22.2392  22.2526  22.2901  22.3015  22.3435  22.3857  22.4052
    22.4281  22.4462  22.4599  22.5096  22.5239  22.5248  22.5469  22.5660
    22.5801  22.5897  22.6055  22.6254  22.6467  22.6542  22.6735  22.7278
    22.7448  22.7595  22.7652  22.7801  22.8023  22.8148  22.8313  22.8550
    22.8789  22.8910  22.9112  22.9334  22.9676  22.9865  23.0104  23.0280
    23.0367  23.1058  23.1285  23.1459  23.1923  23.1983  23.2069  23.2307
    23.2556  23.2801  23.2814  23.3191  23.3283  23.3471  23.4204  23.4357
    23.4358  23.4702  23.4919  23.5051  23.5301  23.5313  23.5566  23.5585
    23.5813  23.5874  23.6200  23.6290  23.6293  23.6383  23.6385  23.6570
    23.6674  23.6770  23.7007  23.7105  23.7175  23.7403  23.7525  23.7685
    23.7685  23.7891  23.8143  23.8262  23.8369  23.8562  23.8640  23.8751
    23.8756  23.8945  23.9113  23.9128  23.9407  23.9418  23.9602  24.0075
    24.0225  24.0532  24.0544  24.0963  24.1139  24.1341  24.1536  24.1688
    24.1752  24.1999  24.2119  24.2190  24.2328  24.2629  24.2722  24.2937
    24.2939  24.2990  24.3152  24.3201  24.3303  24.3339  24.3581  24.3845
    24.3846  24.3988  24.4149  24.4255  24.4433  24.4650  24.4947  24.5047
    24.5280  24.5619  24.6108  24.6298  24.6408  24.6640  24.6827  24.7010
    24.7530  24.7755  24.7903  24.8559  24.8909  24.9043  24.9078  24.9134
    24.9182  24.9472  24.9666  24.9724  24.9967  25.0105  25.0364  25.0702
    25.0790  25.0915  25.1129  25.1518  25.1530  25.1685  25.1919  25.1925
    25.2185  25.2532  25.2984  25.3029  25.3140  25.3427  25.3495  25.3846
    25.3960  25.4443  25.4579  25.4709  25.4893  25.4933  25.5010  25.5205
    25.5227  25.5455  25.5526  25.5592  25.5615  25.5866  25.6109  25.6111
    25.6249  25.6521  25.6854  25.7009  25.7340  25.7720  25.7814  25.8169
    25.8273  25.8604  25.8670  25.9098  25.9112  25.9314  25.9515  25.9557
    25.9806  26.0009  26.0114  26.0217  26.0266  26.0619  26.0651  26.1086
    26.1274  26.1332  26.1643  26.2014  26.2077  26.2273  26.2292  26.2423
    26.2451  26.2511  26.2875  26.2881  26.3027  26.3480  26.3484  26.3552
    26.3840  26.3904  26.4056  26.4512  26.4515  26.4632  26.4665  26.4794
    26.4987  26.5166  26.5306  26.5549  26.5569  26.5620  26.5691  26.5940
    26.6038  26.6178  26.6615  26.6647  26.7081  26.7344  26.7377  26.7562
    26.7625  26.7729  26.7769  26.7897  26.7959  26.8092  26.8350  26.8903
    26.9085  26.9219  26.9320  26.9456  26.9568  26.9721  26.9925  26.9966
    27.0498  27.0661  27.0677  27.0842  27.1070  27.1318  27.1615  27.1721
    27.1953  27.2070  27.2157  27.2227  27.2889  27.3226  27.3316  27.3812
    27.4065  27.4136  27.4250  27.4318  27.4426  27.4498  27.4789  27.5119
    27.5225  27.5331  27.5514  27.5711  27.5984  27.6545  27.6686  27.7101
    27.7154  27.7172  27.7558  27.7743  27.7777  27.7999  27.8328  27.8340
    27.8743  27.8755  27.8833  27.8944  27.9029  27.9047  27.9226  27.9270
    27.9395  27.9473  27.9496  27.9602  27.9746  27.9893  28.0025  28.0192
    28.0406  28.0829  28.0926  28.1126  28.1407  28.1581  28.2055  28.2291
    28.2401  28.2805  28.2987  28.3231  28.3436  28.3511  28.4032  28.4224
    28.4444  28.4531  28.4750  28.4889  28.5091  28.5272  28.5428  28.5753
    28.5824  28.6063  28.6152  28.6252  28.6423  28.6633  28.6704  28.6831
    28.7048  28.7211  28.7365  28.7370  28.7624  28.7796  28.7871  28.8102
    28.8198  28.8218  28.8335  28.8429  28.8875  28.8892  28.9107  28.9307
    28.9398  28.9795  28.9942  29.0183  29.0304  29.0424  29.0997  29.1095
    29.1292  29.1312  29.1381  29.1471  29.1481  29.1625  29.1678  29.1984
    29.1993  29.2187  29.2233  29.2455  29.2520  29.2800  29.2992  29.3028
    29.3127  29.3396  29.3534  29.3638  29.3967  29.4245  29.4427  29.4664
    29.4754  29.4982  29.5106  29.5142  29.5334  29.5777  29.5912  29.6063
    29.6233  29.6468  29.6494  29.6862  29.6917  29.7001  29.7218  29.7342
    29.7373  29.7497  29.7990  29.8021  29.8735  29.8813  29.9159  29.9241
    29.9329  29.9502  29.9612  29.9892  30.0028  30.0148  30.0242  30.0342
    30.0635  30.0672  30.0875  30.0896  30.1103  30.1183  30.1540  30.1785
    30.1960  30.1997  30.2108  30.2462  30.2715  30.2741  30.2839  30.3004
    30.3237  30.3439  30.3484  30.3707  30.3853  30.4009  30.4130  30.4308
    30.4396  30.4611  30.4742  30.4746  30.4928  30.5224  30.5297  30.5528
    30.5654  30.5735  30.5929  30.6117  30.6519  30.6636  30.6701  30.6899
    30.7195  30.7326  30.7414  30.7549  30.7715  30.8007  30.8121  30.8272
    30.8414  30.8508  30.8681  30.8705  30.8815  30.8824  30.8916  30.9031
    30.9221  30.9234  30.9312  30.9408  30.9568  30.9874  30.9906  31.0295
    31.0350  31.0578  31.0811  31.0854  31.0994  31.1103  31.1257  31.1280
    31.1618  31.1683  31.2154  31.2509  31.2636  31.2798  31.3101  31.3172
    31.3368  31.3469  31.3556  31.3591  31.3683  31.3844  31.4039  31.4181
    31.4301  31.4462  31.4618  31.4971  31.5000  31.5396  31.5527  31.5681
    31.6359  31.6934  31.7515  31.7896  31.8074  31.8104  31.8396  31.8476
    31.8620  31.8634  31.8891  31.9206  31.9223  31.9496  32.0101  32.0290
    32.0371  32.0471  32.0509  32.0974  32.1046  32.1095  32.1338  32.1511
    32.1613  32.1910  32.1925  32.2077  32.2905  32.3072  32.3110  32.3182
    32.3575  32.3629  32.3710  32.3899  32.4196  32.4417  32.4585  32.4606
    32.4778  32.4929  32.5427  32.6347  32.6555  32.6587  32.6813  32.6864
    32.7004  32.7029  32.7071  32.7110  32.7187  32.7270  32.7453  32.7507
    32.7639  32.7783  32.7790  32.8023  32.8101  32.8175  32.8288  32.8409
    32.8547  32.8702  32.8738  32.8833  32.8867  32.9041  32.9111  32.9273
    32.9508  32.9542  32.9676  32.9754  32.9954  33.0085  33.0541  33.0705
    33.0870  33.1089  33.1214  33.1304  33.1542  33.1595  33.2081  33.2179
    33.2266  33.2370  33.2659  33.2691  33.2735  33.2765  33.3019  33.3292
    33.3351  33.3726  33.3768  33.3936  33.4069  33.4139  33.4254  33.4565
    33.4730  33.4862  33.4950  33.5001  33.5153  33.5227  33.5277  33.5287
    33.5488  33.5573  33.5719  33.5860  33.5932  33.6002  33.6051  33.6187
    33.6209  33.7285  33.7411  33.7815  33.7959  33.8361  33.8427  33.8774
    33.8796  33.9035  33.9228  33.9355  33.9478  33.9653  33.9801  34.0042
    34.0233  34.0433  34.0492  34.0579  34.0602  34.0691  34.0863  34.1032
    34.1054  34.1207  34.1251  34.1390  34.1506  34.1579  34.1736  34.1863
    34.1877  34.2276  34.2539  34.2578  34.2811  34.2812  34.3238  34.3656
    34.3921  34.3926  34.4054  34.4084  34.4173  34.4257  34.4486  34.4594
    34.4601  34.4705  34.4830  34.5014  34.5039  34.5192  34.5247  34.5432
    34.5456  34.5602  34.5705  34.5928  34.6152  34.6337  34.6482  34.6531
    34.6697  34.6741  34.7061  34.7190  34.7583  34.7843  34.7978  34.8193
    34.8513  34.8601  34.8883  34.9198  34.9409  34.9679  34.9735  34.9892
    34.9929  35.0102  35.0308  35.0492  35.0611  35.0871  35.0924  35.0977
    35.1257  35.1423  35.1571  35.1705  35.2284  35.2318  35.2897  35.3676
    35.3683  35.3978  35.4107  35.4257  35.4278  35.4389  35.4586  35.4836
    35.4928  35.4987  35.5144  35.5342  35.5476  35.5482  35.5603  35.5646
    35.5737  35.5778  35.5819  35.5937  35.5974  35.6074  35.6160  35.6338
    35.6429  35.6650  35.6696  35.6968  35.7118  35.7224

     occupation numbers 
     1.0000   1.0000   1.0000   1.0000   1.0000   1.0000   1.0000   1.0000
     1.0000   1.0000   1.0000   1.0000   1.0000   1.0000   1.0000   1.0000
     1.0000   1.0000   1.0000   1.0000   1.0000   1.0000   1.0000   1.0000
     1.0000   1.0000   1.0000   1.0000   1.0000   1.0000   1.0000   1.0000
     1.0000   1.0000   1.0000   1.0000   1.0000   1.0000   1.0000   1.0000
     1.0000   1.0000   1.0000   1.0000   1.0000   1.0000   1.0000   1.0000
     1.0000   1.0000   1.0000   1.0000   1.0000   1.0000   1.0000   1.0000
     1.0000   1.0000   1.0000   1.0000   1.0000   1.0000   1.0000   1.0000
     1.0000   1.0000   1.0000   1.0000   1.0000   1.0000   1.0000   1.0000
     1.0000   1.0000   1.0000   1.0000   1.0000   1.0000   1.0000   1.0000
     1.0000   1.0000   1.0000   1.0000   1.0000   1.0000   1.0000   1.0000
     1.0000   1.0000   1.0000   1.0000   1.0000   1.0000   1.0000   1.0000
     1.0000   1.0000   1.0000   1.0000   1.0000   1.0000   1.0000   1.0000
     1.0000   1.0000   1.0000   1.0000   1.0000   1.0000   1.0000   1.0000
     1.0000   1.0000   1.0000   1.0000   1.0000   1.0000   1.0000   1.0000
     1.0000   1.0000   1.0000   1.0000   1.0000   1.0000   1.0000   1.0000
     1.0000   1.0000   1.0000   1.0000   1.0000   1.0000   1.0000   1.0000
     1.0000   1.0000   1.0000   1.0000   1.0000   1.0000   1.0000   0.0000
     0.0000   0.0000   0.0000   0.0000   0.0000   0.0000   0.0000   0.0000
     0.0000   0.0000   0.0000   0.0000   0.0000   0.0000   0.0000   0.0000
     0.0000   0.0000   0.0000   0.0000   0.0000   0.0000   0.0000   0.0000
     0.0000   0.0000   0.0000   0.0000   0.0000   0.0000   0.0000   0.0000
     0.0000   0.0000   0.0000   0.0000   0.0000   0.0000   0.0000   0.0000
     0.0000   0.0000   0.0000   0.0000   0.0000   0.0000   0.0000   0.0000
     0.0000   0.0000   0.0000   0.0000   0.0000   0.0000   0.0000   0.0000
     0.0000   0.0000   0.0000   0.0000   0.0000   0.0000   0.0000   0.0000
     0.0000   0.0000   0.0000   0.0000   0.0000   0.0000   0.0000   0.0000
     0.0000   0.0000   0.0000   0.0000   0.0000   0.0000   0.0000   0.0000
     0.0000   0.0000   0.0000   0.0000   0.0000   0.0000   0.0000   0.0000
     0.0000   0.0000   0.0000   0.0000   0.0000   0.0000   0.0000   0.0000
     0.0000   0.0000   0.0000   0.0000   0.0000   0.0000   0.0000   0.0000
     0.0000   0.0000   0.0000   0.0000   0.0000   0.0000   0.0000   0.0000
     0.0000   0.0000   0.0000   0.0000   0.0000   0.0000   0.0000   0.0000
     0.0000   0.0000   0.0000   0.0000   0.0000   0.0000   0.0000   0.0000
     0.0000   0.0000   0.0000   0.0000   0.0000   0.0000   0.0000   0.0000
     0.0000   0.0000   0.0000   0.0000   0.0000   0.0000   0.0000   0.0000
     0.0000   0.0000   0.0000   0.0000   0.0000   0.0000   0.0000   0.0000
     0.0000   0.0000   0.0000   0.0000   0.0000   0.0000   0.0000   0.0000
     0.0000   0.0000   0.0000   0.0000   0.0000   0.0000   0.0000   0.0000
     0.0000   0.0000   0.0000   0.0000   0.0000   0.0000   0.0000   0.0000
     0.0000   0.0000   0.0000   0.0000   0.0000   0.0000   0.0000   0.0000
     0.0000   0.0000   0.0000   0.0000   0.0000   0.0000   0.0000   0.0000
     0.0000   0.0000   0.0000   0.0000   0.0000   0.0000   0.0000   0.0000
     0.0000   0.0000   0.0000   0.0000   0.0000   0.0000   0.0000   0.0000
     0.0000   0.0000   0.0000   0.0000   0.0000   0.0000   0.0000   0.0000
     0.0000   0.0000   0.0000   0.0000   0.0000   0.0000   0.0000   0.0000
     0.0000   0.0000   0.0000   0.0000   0.0000   0.0000   0.0000   0.0000
     0.0000   0.0000   0.0000   0.0000   0.0000   0.0000   0.0000   0.0000
     0.0000   0.0000   0.0000   0.0000   0.0000   0.0000   0.0000   0.0000
     0.0000   0.0000   0.0000   0.0000   0.0000   0.0000   0.0000   0.0000
     0.0000   0.0000   0.0000   0.0000   0.0000   0.0000   0.0000   0.0000
     0.0000   0.0000   0.0000   0.0000   0.0000   0.0000   0.0000   0.0000
     0.0000   0.0000   0.0000   0.0000   0.0000   0.0000   0.0000   0.0000
     0.0000   0.0000   0.0000   0.0000   0.0000   0.0000   0.0000   0.0000
     0.0000   0.0000   0.0000   0.0000   0.0000   0.0000   0.0000   0.0000
     0.0000   0.0000   0.0000   0.0000   0.0000   0.0000   0.0000   0.0000
     0.0000   0.0000   0.0000   0.0000   0.0000   0.0000   0.0000   0.0000
     0.0000   0.0000   0.0000   0.0000   0.0000   0.0000   0.0000   0.0000
     0.0000   0.0000   0.0000   0.0000   0.0000   0.0000   0.0000   0.0000
     0.0000   0.0000   0.0000   0.0000   0.0000   0.0000   0.0000   0.0000
     0.0000   0.0000   0.0000   0.0000   0.0000   0.0000   0.0000   0.0000
     0.0000   0.0000   0.0000   0.0000   0.0000   0.0000   0.0000   0.0000
     0.0000   0.0000   0.0000   0.0000   0.0000   0.0000   0.0000   0.0000
     0.0000   0.0000   0.0000   0.0000   0.0000   0.0000   0.0000   0.0000
     0.0000   0.0000   0.0000   0.0000   0.0000   0.0000   0.0000   0.0000
     0.0000   0.0000   0.0000   0.0000   0.0000   0.0000   0.0000   0.0000
     0.0000   0.0000   0.0000   0.0000   0.0000   0.0000   0.0000   0.0000
     0.0000   0.0000   0.0000   0.0000   0.0000   0.0000   0.0000   0.0000
     0.0000   0.0000   0.0000   0.0000   0.0000   0.0000   0.0000   0.0000
     0.0000   0.0000   0.0000   0.0000   0.0000   0.0000   0.0000   0.0000
     0.0000   0.0000   0.0000   0.0000   0.0000   0.0000   0.0000   0.0000
     0.0000   0.0000   0.0000   0.0000   0.0000   0.0000   0.0000   0.0000
     0.0000   0.0000   0.0000   0.0000   0.0000   0.0000   0.0000   0.0000
     0.0000   0.0000   0.0000   0.0000   0.0000   0.0000   0.0000   0.0000
     0.0000   0.0000   0.0000   0.0000   0.0000   0.0000   0.0000   0.0000
     0.0000   0.0000   0.0000   0.0000   0.0000   0.0000   0.0000   0.0000
     0.0000   0.0000   0.0000   0.0000   0.0000   0.0000   0.0000   0.0000
     0.0000   0.0000   0.0000   0.0000   0.0000   0.0000   0.0000   0.0000
     0.0000   0.0000   0.0000   0.0000   0.0000   0.0000   0.0000   0.0000
     0.0000   0.0000   0.0000   0.0000   0.0000   0.0000   0.0000   0.0000
     0.0000   0.0000   0.0000   0.0000   0.0000   0.0000   0.0000   0.0000
     0.0000   0.0000   0.0000   0.0000   0.0000   0.0000   0.0000   0.0000
     0.0000   0.0000   0.0000   0.0000   0.0000   0.0000   0.0000   0.0000
     0.0000   0.0000   0.0000   0.0000   0.0000   0.0000   0.0000   0.0000
     0.0000   0.0000   0.0000   0.0000   0.0000   0.0000   0.0000   0.0000
     0.0000   0.0000   0.0000   0.0000   0.0000   0.0000   0.0000   0.0000
     0.0000   0.0000   0.0000   0.0000   0.0000   0.0000   0.0000   0.0000
     0.0000   0.0000   0.0000   0.0000   0.0000   0.0000   0.0000   0.0000
     0.0000   0.0000   0.0000   0.0000   0.0000   0.0000   0.0000   0.0000
     0.0000   0.0000   0.0000   0.0000   0.0000   0.0000   0.0000   0.0000
     0.0000   0.0000   0.0000   0.0000   0.0000   0.0000   0.0000   0.0000
     0.0000   0.0000   0.0000   0.0000   0.0000   0.0000   0.0000   0.0000
     0.0000   0.0000   0.0000   0.0000   0.0000   0.0000   0.0000   0.0000
     0.0000   0.0000   0.0000   0.0000   0.0000   0.0000   0.0000   0.0000
     0.0000   0.0000   0.0000   0.0000   0.0000   0.0000   0.0000   0.0000
     0.0000   0.0000   0.0000   0.0000   0.0000   0.0000   0.0000   0.0000
     0.0000   0.0000   0.0000   0.0000   0.0000   0.0000   0.0000   0.0000
     0.0000   0.0000   0.0000   0.0000   0.0000   0.0000   0.0000   0.0000
     0.0000   0.0000   0.0000   0.0000   0.0000   0.0000   0.0000   0.0000
     0.0000   0.0000   0.0000   0.0000   0.0000   0.0000   0.0000   0.0000
     0.0000   0.0000   0.0000   0.0000   0.0000   0.0000   0.0000   0.0000
     0.0000   0.0000   0.0000   0.0000   0.0000   0.0000   0.0000   0.0000
     0.0000   0.0000   0.0000   0.0000   0.0000   0.0000   0.0000   0.0000
     0.0000   0.0000   0.0000   0.0000   0.0000   0.0000   0.0000   0.0000
     0.0000   0.0000   0.0000   0.0000   0.0000   0.0000   0.0000   0.0000
     0.0000   0.0000   0.0000   0.0000   0.0000   0.0000   0.0000   0.0000
     0.0000   0.0000   0.0000   0.0000   0.0000   0.0000   0.0000   0.0000
     0.0000   0.0000   0.0000   0.0000   0.0000   0.0000   0.0000   0.0000
     0.0000   0.0000   0.0000   0.0000   0.0000   0.0000   0.0000   0.0000
     0.0000   0.0000   0.0000   0.0000   0.0000   0.0000   0.0000   0.0000
     0.0000   0.0000   0.0000   0.0000   0.0000   0.0000   0.0000   0.0000
     0.0000   0.0000   0.0000   0.0000   0.0000   0.0000   0.0000   0.0000
     0.0000   0.0000   0.0000   0.0000   0.0000   0.0000   0.0000   0.0000
     0.0000   0.0000   0.0000   0.0000   0.0000   0.0000   0.0000   0.0000
     0.0000   0.0000   0.0000   0.0000   0.0000   0.0000   0.0000   0.0000
     0.0000   0.0000   0.0000   0.0000   0.0000   0.0000   0.0000   0.0000
     0.0000   0.0000   0.0000   0.0000   0.0000   0.0000   0.0000   0.0000
     0.0000   0.0000   0.0000   0.0000   0.0000   0.0000   0.0000   0.0000
     0.0000   0.0000   0.0000   0.0000   0.0000   0.0000   0.0000   0.0000
     0.0000   0.0000   0.0000   0.0000   0.0000   0.0000   0.0000   0.0000
     0.0000   0.0000   0.0000   0.0000   0.0000   0.0000   0.0000   0.0000
     0.0000   0.0000   0.0000   0.0000   0.0000   0.0000   0.0000   0.0000
     0.0000   0.0000   0.0000   0.0000   0.0000   0.0000   0.0000   0.0000
     0.0000   0.0000   0.0000   0.0000   0.0000   0.0000   0.0000   0.0000
     0.0000   0.0000   0.0000   0.0000   0.0000   0.0000   0.0000   0.0000
     0.0000   0.0000   0.0000   0.0000   0.0000   0.0000   0.0000   0.0000
     0.0000   0.0000   0.0000   0.0000   0.0000   0.0000   0.0000   0.0000
     0.0000   0.0000   0.0000   0.0000   0.0000   0.0000   0.0000   0.0000
     0.0000   0.0000   0.0000   0.0000   0.0000   0.0000   0.0000   0.0000
     0.0000   0.0000   0.0000   0.0000   0.0000   0.0000   0.0000   0.0000
     0.0000   0.0000   0.0000   0.0000   0.0000   0.0000   0.0000   0.0000
     0.0000   0.0000   0.0000   0.0000   0.0000   0.0000   0.0000   0.0000
     0.0000   0.0000   0.0000   0.0000   0.0000   0.0000   0.0000   0.0000
     0.0000   0.0000   0.0000   0.0000   0.0000   0.0000   0.0000   0.0000
     0.0000   0.0000   0.0000   0.0000   0.0000   0.0000   0.0000   0.0000
     0.0000   0.0000   0.0000   0.0000   0.0000   0.0000   0.0000   0.0000
     0.0000   0.0000   0.0000   0.0000   0.0000   0.0000   0.0000   0.0000
     0.0000   0.0000   0.0000   0.0000   0.0000   0.0000   0.0000   0.0000
     0.0000   0.0000   0.0000   0.0000   0.0000   0.0000   0.0000   0.0000
     0.0000   0.0000   0.0000   0.0000   0.0000   0.0000   0.0000   0.0000
     0.0000   0.0000   0.0000   0.0000   0.0000   0.0000   0.0000   0.0000
     0.0000   0.0000   0.0000   0.0000   0.0000   0.0000   0.0000   0.0000
     0.0000   0.0000   0.0000   0.0000   0.0000   0.0000   0.0000   0.0000
     0.0000   0.0000   0.0000   0.0000   0.0000   0.0000   0.0000   0.0000
     0.0000   0.0000   0.0000   0.0000   0.0000   0.0000   0.0000   0.0000
     0.0000   0.0000   0.0000   0.0000   0.0000   0.0000   0.0000   0.0000
     0.0000   0.0000   0.0000   0.0000   0.0000   0.0000   0.0000   0.0000
     0.0000   0.0000   0.0000   0.0000   0.0000   0.0000   0.0000   0.0000
     0.0000   0.0000   0.0000   0.0000   0.0000   0.0000   0.0000   0.0000
     0.0000   0.0000   0.0000   0.0000   0.0000   0.0000   0.0000   0.0000
     0.0000   0.0000   0.0000   0.0000   0.0000   0.0000   0.0000   0.0000
     0.0000   0.0000   0.0000   0.0000   0.0000   0.0000   0.0000   0.0000
     0.0000   0.0000   0.0000   0.0000   0.0000   0.0000   0.0000   0.0000
     0.0000   0.0000   0.0000   0.0000   0.0000   0.0000   0.0000   0.0000
     0.0000   0.0000   0.0000   0.0000   0.0000   0.0000   0.0000   0.0000
     0.0000   0.0000   0.0000   0.0000   0.0000   0.0000   0.0000   0.0000
     0.0000   0.0000   0.0000   0.0000   0.0000   0.0000   0.0000   0.0000
     0.0000   0.0000   0.0000   0.0000   0.0000   0.0000   0.0000   0.0000
     0.0000   0.0000   0.0000   0.0000   0.0000   0.0000   0.0000   0.0000
     0.0000   0.0000   0.0000   0.0000   0.0000   0.0000   0.0000   0.0000
     0.0000   0.0000   0.0000   0.0000   0.0000   0.0000   0.0000   0.0000
     0.0000   0.0000   0.0000   0.0000   0.0000   0.0000   0.0000   0.0000
     0.0000   0.0000   0.0000   0.0000   0.0000   0.0000   0.0000   0.0000
     0.0000   0.0000   0.0000   0.0000   0.0000   0.0000   0.0000   0.0000
     0.0000   0.0000   0.0000   0.0000   0.0000   0.0000   0.0000   0.0000
     0.0000   0.0000   0.0000   0.0000   0.0000   0.0000   0.0000   0.0000
     0.0000   0.0000   0.0000   0.0000   0.0000   0.0000   0.0000   0.0000
     0.0000   0.0000   0.0000   0.0000   0.0000   0.0000   0.0000   0.0000
     0.0000   0.0000   0.0000   0.0000   0.0000   0.0000   0.0000   0.0000
     0.0000   0.0000   0.0000   0.0000   0.0000   0.0000   0.0000   0.0000
     0.0000   0.0000   0.0000   0.0000   0.0000   0.0000   0.0000   0.0000
     0.0000   0.0000   0.0000   0.0000   0.0000   0.0000   0.0000   0.0000
     0.0000   0.0000   0.0000   0.0000   0.0000   0.0000   0.0000   0.0000
     0.0000   0.0000   0.0000   0.0000   0.0000   0.0000   0.0000   0.0000
     0.0000   0.0000   0.0000   0.0000   0.0000   0.0000   0.0000   0.0000
     0.0000   0.0000   0.0000   0.0000   0.0000   0.0000   0.0000   0.0000
     0.0000   0.0000   0.0000   0.0000   0.0000   0.0000   0.0000   0.0000
     0.0000   0.0000   0.0000   0.0000   0.0000   0.0000   0.0000   0.0000
     0.0000   0.0000   0.0000   0.0000   0.0000   0.0000   0.0000   0.0000
     0.0000   0.0000   0.0000   0.0000   0.0000   0.0000   0.0000   0.0000
     0.0000   0.0000   0.0000   0.0000   0.0000   0.0000   0.0000   0.0000
     0.0000   0.0000   0.0000   0.0000   0.0000   0.0000   0.0000   0.0000
     0.0000   0.0000   0.0000   0.0000   0.0000   0.0000   0.0000   0.0000
     0.0000   0.0000   0.0000   0.0000   0.0000   0.0000   0.0000   0.0000
     0.0000   0.0000   0.0000   0.0000   0.0000   0.0000   0.0000   0.0000
     0.0000   0.0000   0.0000   0.0000   0.0000   0.0000   0.0000   0.0000
[...]
    33.5538  33.5654  33.5802  33.5938  33.6014  33.6071  33.6163  33.6276
    33.6289  33.7377  33.7551  33.7883  33.8073  33.8431  33.8628  33.8861
    33.8896  33.9162  33.9286  33.9431  33.9555  33.9738  33.9929  34.0160
    34.0304  34.0501  34.0587  34.0643  34.0690  34.0767  34.0971  34.1100
    34.1123  34.1304  34.1330  34.1458  34.1568  34.1670  34.1785  34.1927
    34.1995  34.2339  34.2629  34.2645  34.2879  34.2880  34.3314  34.3793
    34.3978  34.4001  34.4080  34.4145  34.4237  34.4323  34.4554  34.4676
    34.4715  34.4774  34.4918  34.5079  34.5165  34.5279  34.5354  34.5519
    34.5569  34.5691  34.5801  34.6010  34.6228  34.6398  34.6556  34.6619
    34.6760  34.6850  34.7130  34.7248  34.7678  34.7901  34.8085  34.8260
    34.8586  34.8641  34.8964  34.9253  34.9517  34.9738  34.9774  34.9969
    34.9986  35.0183  35.0384  35.0549  35.0702  35.0949  35.1009  35.1038
    35.1386  35.1525  35.1657  35.1783  35.2363  35.2394  35.3025  35.3757
    35.3769  35.4057  35.4161  35.4327  35.4360  35.4459  35.4642  35.4956
    35.5012  35.5046  35.5233  35.5438  35.5535  35.5547  35.5657  35.5690
    35.5803  35.5815  35.5878  35.6016  35.6019  35.6155  35.6221  35.6400
    35.6493  35.6719  35.6790  35.7048  35.7213  35.7327

     occupation numbers 
     1.0000   1.0000   1.0000   1.0000   1.0000   1.0000   1.0000   1.0000
     1.0000   1.0000   1.0000   1.0000   1.0000   1.0000   1.0000   1.0000
     1.0000   1.0000   1.0000   1.0000   1.0000   1.0000   1.0000   1.0000
     1.0000   1.0000   1.0000   1.0000   1.0000   1.0000   1.0000   1.0000
     1.0000   1.0000   1.0000   1.0000   1.0000   1.0000   1.0000   1.0000
     1.0000   1.0000   1.0000   1.0000   1.0000   1.0000   1.0000   1.0000
     1.0000   1.0000   1.0000   1.0000   1.0000   1.0000   1.0000   1.0000
     1.0000   1.0000   1.0000   1.0000   1.0000   1.0000   1.0000   1.0000
     1.0000   1.0000   1.0000   1.0000   1.0000   1.0000   1.0000   1.0000
     1.0000   1.0000   1.0000   1.0000   1.0000   1.0000   1.0000   1.0000
     1.0000   1.0000   1.0000   1.0000   1.0000   1.0000   1.0000   1.0000
     1.0000   1.0000   1.0000   1.0000   1.0000   1.0000   1.0000   1.0000
     1.0000   1.0000   1.0000   1.0000   1.0000   1.0000   1.0000   1.0000
     1.0000   1.0000   1.0000   1.0000   1.0000   1.0000   1.0000   1.0000
     1.0000   1.0000   1.0000   1.0000   1.0000   1.0000   1.0000   1.0000
     1.0000   1.0000   1.0000   1.0000   1.0000   1.0000   1.0000   1.0000
     1.0000   1.0000   1.0000   1.0000   1.0000   1.0000   1.0000   1.0000
     1.0000   1.0000   1.0000   1.0000   1.0000   1.0000   0.0000   0.0000
     0.0000   0.0000   0.0000   0.0000   0.0000   0.0000   0.0000   0.0000
     0.0000   0.0000   0.0000   0.0000   0.0000   0.0000   0.0000   0.0000
     0.0000   0.0000   0.0000   0.0000   0.0000   0.0000   0.0000   0.0000
     0.0000   0.0000   0.0000   0.0000   0.0000   0.0000   0.0000   0.0000
     0.0000   0.0000   0.0000   0.0000   0.0000   0.0000   0.0000   0.0000
     0.0000   0.0000   0.0000   0.0000   0.0000   0.0000   0.0000   0.0000
     0.0000   0.0000   0.0000   0.0000   0.0000   0.0000   0.0000   0.0000
     0.0000   0.0000   0.0000   0.0000   0.0000   0.0000   0.0000   0.0000
     0.0000   0.0000   0.0000   0.0000   0.0000   0.0000   0.0000   0.0000
     0.0000   0.0000   0.0000   0.0000   0.0000   0.0000   0.0000   0.0000
     0.0000   0.0000   0.0000   0.0000   0.0000   0.0000   0.0000   0.0000
     0.0000   0.0000   0.0000   0.0000   0.0000   0.0000   0.0000   0.0000
     0.0000   0.0000   0.0000   0.0000   0.0000   0.0000   0.0000   0.0000
     0.0000   0.0000   0.0000   0.0000   0.0000   0.0000   0.0000   0.0000
     0.0000   0.0000   0.0000   0.0000   0.0000   0.0000   0.0000   0.0000
     0.0000   0.0000   0.0000   0.0000   0.0000   0.0000   0.0000   0.0000
     0.0000   0.0000   0.0000   0.0000   0.0000   0.0000   0.0000   0.0000
     0.0000   0.0000   0.0000   0.0000   0.0000   0.0000   0.0000   0.0000
     0.0000   0.0000   0.0000   0.0000   0.0000   0.0000   0.0000   0.0000
     0.0000   0.0000   0.0000   0.0000   0.0000   0.0000   0.0000   0.0000
     0.0000   0.0000   0.0000   0.0000   0.0000   0.0000   0.0000   0.0000
     0.0000   0.0000   0.0000   0.0000   0.0000   0.0000   0.0000   0.0000
     0.0000   0.0000   0.0000   0.0000   0.0000   0.0000   0.0000   0.0000
     0.0000   0.0000   0.0000   0.0000   0.0000   0.0000   0.0000   0.0000
     0.0000   0.0000   0.0000   0.0000   0.0000   0.0000   0.0000   0.0000
     0.0000   0.0000   0.0000   0.0000   0.0000   0.0000   0.0000   0.0000
     0.0000   0.0000   0.0000   0.0000   0.0000   0.0000   0.0000   0.0000
     0.0000   0.0000   0.0000   0.0000   0.0000   0.0000   0.0000   0.0000
     0.0000   0.0000   0.0000   0.0000   0.0000   0.0000   0.0000   0.0000
     0.0000   0.0000   0.0000   0.0000   0.0000   0.0000   0.0000   0.0000
     0.0000   0.0000   0.0000   0.0000   0.0000   0.0000   0.0000   0.0000
     0.0000   0.0000   0.0000   0.0000   0.0000   0.0000   0.0000   0.0000
     0.0000   0.0000   0.0000   0.0000   0.0000   0.0000   0.0000   0.0000
     0.0000   0.0000   0.0000   0.0000   0.0000   0.0000   0.0000   0.0000
     0.0000   0.0000   0.0000   0.0000   0.0000   0.0000   0.0000   0.0000
     0.0000   0.0000   0.0000   0.0000   0.0000   0.0000   0.0000   0.0000
     0.0000   0.0000   0.0000   0.0000   0.0000   0.0000   0.0000   0.0000
     0.0000   0.0000   0.0000   0.0000   0.0000   0.0000   0.0000   0.0000
     0.0000   0.0000   0.0000   0.0000   0.0000   0.0000   0.0000   0.0000
     0.0000   0.0000   0.0000   0.0000   0.0000   0.0000   0.0000   0.0000
     0.0000   0.0000   0.0000   0.0000   0.0000   0.0000   0.0000   0.0000
     0.0000   0.0000   0.0000   0.0000   0.0000   0.0000   0.0000   0.0000
     0.0000   0.0000   0.0000   0.0000   0.0000   0.0000   0.0000   0.0000
     0.0000   0.0000   0.0000   0.0000   0.0000   0.0000   0.0000   0.0000
     0.0000   0.0000   0.0000   0.0000   0.0000   0.0000   0.0000   0.0000
     0.0000   0.0000   0.0000   0.0000   0.0000   0.0000   0.0000   0.0000
     0.0000   0.0000   0.0000   0.0000   0.0000   0.0000   0.0000   0.0000
     0.0000   0.0000   0.0000   0.0000   0.0000   0.0000   0.0000   0.0000
     0.0000   0.0000   0.0000   0.0000   0.0000   0.0000   0.0000   0.0000
     0.0000   0.0000   0.0000   0.0000   0.0000   0.0000   0.0000   0.0000
     0.0000   0.0000   0.0000   0.0000   0.0000   0.0000   0.0000   0.0000
     0.0000   0.0000   0.0000   0.0000   0.0000   0.0000   0.0000   0.0000
     0.0000   0.0000   0.0000   0.0000   0.0000   0.0000   0.0000   0.0000
     0.0000   0.0000   0.0000   0.0000   0.0000   0.0000   0.0000   0.0000
     0.0000   0.0000   0.0000   0.0000   0.0000   0.0000   0.0000   0.0000
     0.0000   0.0000   0.0000   0.0000   0.0000   0.0000   0.0000   0.0000
     0.0000   0.0000   0.0000   0.0000   0.0000   0.0000   0.0000   0.0000
     0.0000   0.0000   0.0000   0.0000   0.0000   0.0000   0.0000   0.0000
     0.0000   0.0000   0.0000   0.0000   0.0000   0.0000   0.0000   0.0000
     0.0000   0.0000   0.0000   0.0000   0.0000   0.0000   0.0000   0.0000
     0.0000   0.0000   0.0000   0.0000   0.0000   0.0000   0.0000   0.0000
     0.0000   0.0000   0.0000   0.0000   0.0000   0.0000   0.0000   0.0000
     0.0000   0.0000   0.0000   0.0000   0.0000   0.0000   0.0000   0.0000
     0.0000   0.0000   0.0000   0.0000   0.0000   0.0000   0.0000   0.0000
     0.0000   0.0000   0.0000   0.0000   0.0000   0.0000   0.0000   0.0000
     0.0000   0.0000   0.0000   0.0000   0.0000   0.0000   0.0000   0.0000
     0.0000   0.0000   0.0000   0.0000   0.0000   0.0000   0.0000   0.0000
     0.0000   0.0000   0.0000   0.0000   0.0000   0.0000   0.0000   0.0000
     0.0000   0.0000   0.0000   0.0000   0.0000   0.0000   0.0000   0.0000
     0.0000   0.0000   0.0000   0.0000   0.0000   0.0000   0.0000   0.0000
     0.0000   0.0000   0.0000   0.0000   0.0000   0.0000   0.0000   0.0000
     0.0000   0.0000   0.0000   0.0000   0.0000   0.0000   0.0000   0.0000
     0.0000   0.0000   0.0000   0.0000   0.0000   0.0000   0.0000   0.0000
     0.0000   0.0000   0.0000   0.0000   0.0000   0.0000   0.0000   0.0000
     0.0000   0.0000   0.0000   0.0000   0.0000   0.0000   0.0000   0.0000
     0.0000   0.0000   0.0000   0.0000   0.0000   0.0000   0.0000   0.0000
     0.0000   0.0000   0.0000   0.0000   0.0000   0.0000   0.0000   0.0000
     0.0000   0.0000   0.0000   0.0000   0.0000   0.0000   0.0000   0.0000
     0.0000   0.0000   0.0000   0.0000   0.0000   0.0000   0.0000   0.0000
     0.0000   0.0000   0.0000   0.0000   0.0000   0.0000   0.0000   0.0000
     0.0000   0.0000   0.0000   0.0000   0.0000   0.0000   0.0000   0.0000
     0.0000   0.0000   0.0000   0.0000   0.0000   0.0000   0.0000   0.0000
     0.0000   0.0000   0.0000   0.0000   0.0000   0.0000   0.0000   0.0000
     0.0000   0.0000   0.0000   0.0000   0.0000   0.0000   0.0000   0.0000
     0.0000   0.0000   0.0000   0.0000   0.0000   0.0000   0.0000   0.0000
     0.0000   0.0000   0.0000   0.0000   0.0000   0.0000   0.0000   0.0000
     0.0000   0.0000   0.0000   0.0000   0.0000   0.0000   0.0000   0.0000
     0.0000   0.0000   0.0000   0.0000   0.0000   0.0000   0.0000   0.0000
     0.0000   0.0000   0.0000   0.0000   0.0000   0.0000   0.0000   0.0000
     0.0000   0.0000   0.0000   0.0000   0.0000   0.0000   0.0000   0.0000
     0.0000   0.0000   0.0000   0.0000   0.0000   0.0000   0.0000   0.0000
     0.0000   0.0000   0.0000   0.0000   0.0000   0.0000   0.0000   0.0000
     0.0000   0.0000   0.0000   0.0000   0.0000   0.0000   0.0000   0.0000
     0.0000   0.0000   0.0000   0.0000   0.0000   0.0000   0.0000   0.0000
     0.0000   0.0000   0.0000   0.0000   0.0000   0.0000   0.0000   0.0000
     0.0000   0.0000   0.0000   0.0000   0.0000   0.0000   0.0000   0.0000
     0.0000   0.0000   0.0000   0.0000   0.0000   0.0000   0.0000   0.0000
     0.0000   0.0000   0.0000   0.0000   0.0000   0.0000   0.0000   0.0000
     0.0000   0.0000   0.0000   0.0000   0.0000   0.0000   0.0000   0.0000
     0.0000   0.0000   0.0000   0.0000   0.0000   0.0000   0.0000   0.0000
     0.0000   0.0000   0.0000   0.0000   0.0000   0.0000   0.0000   0.0000
     0.0000   0.0000   0.0000   0.0000   0.0000   0.0000   0.0000   0.0000
     0.0000   0.0000   0.0000   0.0000   0.0000   0.0000   0.0000   0.0000
     0.0000   0.0000   0.0000   0.0000   0.0000   0.0000   0.0000   0.0000
     0.0000   0.0000   0.0000   0.0000   0.0000   0.0000   0.0000   0.0000
     0.0000   0.0000   0.0000   0.0000   0.0000   0.0000   0.0000   0.0000
     0.0000   0.0000   0.0000   0.0000   0.0000   0.0000   0.0000   0.0000
     0.0000   0.0000   0.0000   0.0000   0.0000   0.0000   0.0000   0.0000
     0.0000   0.0000   0.0000   0.0000   0.0000   0.0000   0.0000   0.0000
     0.0000   0.0000   0.0000   0.0000   0.0000   0.0000   0.0000   0.0000
     0.0000   0.0000   0.0000   0.0000   0.0000   0.0000   0.0000   0.0000
     0.0000   0.0000   0.0000   0.0000   0.0000   0.0000   0.0000   0.0000
     0.0000   0.0000   0.0000   0.0000   0.0000   0.0000   0.0000   0.0000
     0.0000   0.0000   0.0000   0.0000   0.0000   0.0000   0.0000   0.0000
     0.0000   0.0000   0.0000   0.0000   0.0000   0.0000   0.0000   0.0000
     0.0000   0.0000   0.0000   0.0000   0.0000   0.0000   0.0000   0.0000
     0.0000   0.0000   0.0000   0.0000   0.0000   0.0000   0.0000   0.0000
     0.0000   0.0000   0.0000   0.0000   0.0000   0.0000   0.0000   0.0000
     0.0000   0.0000   0.0000   0.0000   0.0000   0.0000   0.0000   0.0000
     0.0000   0.0000   0.0000   0.0000   0.0000   0.0000   0.0000   0.0000
     0.0000   0.0000   0.0000   0.0000   0.0000   0.0000   0.0000   0.0000
     0.0000   0.0000   0.0000   0.0000   0.0000   0.0000   0.0000   0.0000
     0.0000   0.0000   0.0000   0.0000   0.0000   0.0000   0.0000   0.0000
     0.0000   0.0000   0.0000   0.0000   0.0000   0.0000   0.0000   0.0000
     0.0000   0.0000   0.0000   0.0000   0.0000   0.0000   0.0000   0.0000
     0.0000   0.0000   0.0000   0.0000   0.0000   0.0000   0.0000   0.0000
     0.0000   0.0000   0.0000   0.0000   0.0000   0.0000   0.0000   0.0000
     0.0000   0.0000   0.0000   0.0000   0.0000   0.0000   0.0000   0.0000
     0.0000   0.0000   0.0000   0.0000   0.0000   0.0000   0.0000   0.0000
     0.0000   0.0000   0.0000   0.0000   0.0000   0.0000   0.0000   0.0000
     0.0000   0.0000   0.0000   0.0000   0.0000   0.0000   0.0000   0.0000
     0.0000   0.0000   0.0000   0.0000   0.0000   0.0000   0.0000   0.0000
     0.0000   0.0000   0.0000   0.0000   0.0000   0.0000   0.0000   0.0000
     0.0000   0.0000   0.0000   0.0000   0.0000   0.0000   0.0000   0.0000
     0.0000   0.0000   0.0000   0.0000   0.0000   0.0000   0.0000   0.0000
     0.0000   0.0000   0.0000   0.0000   0.0000   0.0000   0.0000   0.0000
     0.0000   0.0000   0.0000   0.0000   0.0000   0.0000   0.0000   0.0000
     0.0000   0.0000   0.0000   0.0000   0.0000   0.0000   0.0000   0.0000
     0.0000   0.0000   0.0000   0.0000   0.0000   0.0000   0.0000   0.0000
     0.0000   0.0000   0.0000   0.0000   0.0000   0.0000   0.0000   0.0000
     0.0000   0.0000   0.0000   0.0000   0.0000   0.0000   0.0000   0.0000
     0.0000   0.0000   0.0000   0.0000   0.0000   0.0000   0.0000   0.0000
     0.0000   0.0000   0.0000   0.0000   0.0000   0.0000   0.0000   0.0000
     0.0000   0.0000   0.0000   0.0000   0.0000   0.0000   0.0000   0.0000
     0.0000   0.0000   0.0000   0.0000   0.0000   0.0000   0.0000   0.0000
     0.0000   0.0000   0.0000   0.0000   0.0000   0.0000   0.0000   0.0000
     0.0000   0.0000   0.0000   0.0000   0.0000   0.0000   0.0000   0.0000
     0.0000   0.0000   0.0000   0.0000   0.0000   0.0000   0.0000   0.0000
     0.0000   0.0000   0.0000   0.0000   0.0000   0.0000   0.0000   0.0000
     0.0000   0.0000   0.0000   0.0000   0.0000   0.0000   0.0000   0.0000
     0.0000   0.0000   0.0000   0.0000   0.0000   0.0000   0.0000   0.0000
     0.0000   0.0000   0.0000   0.0000   0.0000   0.0000   0.0000   0.0000
     0.0000   0.0000   0.0000   0.0000   0.0000   0.0000   0.0000   0.0000
     0.0000   0.0000   0.0000   0.0000   0.0000   0.0000   0.0000   0.0000
     0.0000   0.0000   0.0000   0.0000   0.0000   0.0000   0.0000   0.0000
     0.0000   0.0000   0.0000   0.0000   0.0000   0.0000   0.0000   0.0000
     0.0000   0.0000   0.0000   0.0000   0.0000   0.0000   0.0000   0.0000
     0.0000   0.0000   0.0000   0.0000   0.0000   0.0000   0.0000   0.0000
     0.0000   0.0000   0.0000   0.0000   0.0000   0.0000   0.0000   0.0000
     0.0000   0.0000   0.0000   0.0000   0.0000   0.0000   0.0000   0.0000
     0.0000   0.0000   0.0000   0.0000   0.0000   0.0000   0.0000   0.0000
     0.0000   0.0000   0.0000   0.0000   0.0000   0.0000   0.0000   0.0000
     0.0000   0.0000   0.0000   0.0000   0.0000   0.0000   0.0000   0.0000
     0.0000   0.0000   0.0000   0.0000   0.0000   0.0000   0.0000   0.0000
     0.0000   0.0000   0.0000   0.0000   0.0000   0.0000   0.0000   0.0000
     0.0000   0.0000   0.0000   0.0000   0.0000   0.0000   0.0000   0.0000
     0.0000   0.0000   0.0000   0.0000   0.0000   0.0000   0.0000   0.0000
     0.0000   0.0000   0.0000   0.0000   0.0000   0.0000   0.0000   0.0000
     0.0000   0.0000   0.0000   0.0000   0.0000   0.0000   0.0000   0.0000
     0.0000   0.0000   0.0000   0.0000   0.0000   0.0000   0.0000   0.0000
     0.0000   0.0000   0.0000   0.0000   0.0000   0.0000   0.0000   0.0000
     0.0000   0.0000   0.0000   0.0000   0.0000   0.0000   0.0000   0.0000
     0.0000   0.0000   0.0000   0.0000   0.0000   0.0000   0.0000   0.0000
     0.0000   0.0000   0.0000   0.0000   0.0000   0.0000   0.0000   0.0000
     0.0000   0.0000   0.0000   0.0000   0.0000   0.0000   0.0000   0.0000
     0.0000   0.0000   0.0000   0.0000   0.0000   0.0000   0.0000   0.0000
     0.0000   0.0000   0.0000   0.0000   0.0000   0.0000   0.0000   0.0000
     0.0000   0.0000   0.0000   0.0000   0.0000   0.0000   0.0000   0.0000
     0.0000   0.0000   0.0000   0.0000   0.0000   0.0000   0.0000   0.0000
     0.0000   0.0000   0.0000   0.0000   0.0000   0.0000   0.0000   0.0000
     0.0000   0.0000   0.0000   0.0000   0.0000   0.0000   0.0000   0.0000
     0.0000   0.0000   0.0000   0.0000   0.0000   0.0000   0.0000   0.0000
     0.0000   0.0000   0.0000   0.0000   0.0000   0.0000   0.0000   0.0000
     0.0000   0.0000   0.0000   0.0000   0.0000   0.0000   0.0000   0.0000
     0.0000   0.0000   0.0000   0.0000   0.0000   0.0000   0.0000   0.0000
     0.0000   0.0000   0.0000   0.0000   0.0000   0.0000   0.0000   0.0000
     0.0000   0.0000   0.0000   0.0000   0.0000   0.0000   0.0000   0.0000
     0.0000   0.0000   0.0000   0.0000   0.0000   0.0000   0.0000   0.0000
     0.0000   0.0000   0.0000   0.0000   0.0000   0.0000   0.0000   0.0000
     0.0000   0.0000   0.0000   0.0000   0.0000   0.0000   0.0000   0.0000
     0.0000   0.0000   0.0000   0.0000   0.0000   0.0000   0.0000   0.0000
     0.0000   0.0000   0.0000   0.0000   0.0000   0.0000   0.0000   0.0000
     0.0000   0.0000   0.0000   0.0000   0.0000   0.0000   0.0000   0.0000
     0.0000   0.0000   0.0000   0.0000   0.0000   0.0000   0.0000   0.0000
     0.0000   0.0000   0.0000   0.0000   0.0000   0.0000   0.0000   0.0000
     0.0000   0.0000   0.0000   0.0000   0.0000   0.0000

     the Fermi energy is    -1.3822 ev

     Writing output data file bn.save
 
     init_run     :      3.19s CPU      3.66s WALL (       1 calls)
     electrons    :   5549.34s CPU   5624.28s WALL (       1 calls)

     Called by init_run:
     wfcinit      :      0.00s CPU      0.37s WALL (       1 calls)
     wfcinit:atom :      0.04s CPU      0.07s WALL (       2 calls)
     wfcinit:wfcr :     53.78s CPU     54.40s WALL (       2 calls)
     potinit      :      0.90s CPU      0.94s WALL (       1 calls)

     Called by electrons:
     c_bands      :   5549.34s CPU   5624.25s WALL (       1 calls)
     v_of_rho     :      0.24s CPU      0.25s WALL (       1 calls)
     v_h          :      0.01s CPU      0.01s WALL (       1 calls)
     v_xc         :      0.23s CPU      0.24s WALL (       1 calls)

     Called by c_bands:
     init_us_2    :      0.07s CPU      0.09s WALL (       2 calls)
     cegterg      :   5420.60s CPU   5491.08s WALL (       3 calls)

     Called by sum_band:

     Called by *egterg:
     h_psi        :    364.94s CPU    367.03s WALL (      46 calls)
     g_psi        :      2.40s CPU      2.42s WALL (      41 calls)
     cdiaghg      :   3740.61s CPU   3796.33s WALL (      43 calls)
     cegterg:over :    599.96s CPU    605.98s WALL (      41 calls)
     cegterg:upda :    438.65s CPU    441.31s WALL (      41 calls)
     cegterg:last :    275.89s CPU    277.19s WALL (       9 calls)
     cdiaghg:chol :     94.81s CPU     95.69s WALL (      43 calls)
     cdiaghg:inve :    128.18s CPU    128.71s WALL (      43 calls)
     cdiaghg:para :    282.46s CPU    305.70s WALL (      86 calls)

     Called by h_psi:
     h_psi:pot    :    358.41s CPU    360.48s WALL (      46 calls)
     h_psi:calbec :     45.37s CPU     46.00s WALL (      46 calls)
     vloc_psi     :    267.83s CPU    269.09s WALL (      46 calls)
     add_vuspsi   :     45.21s CPU     45.39s WALL (      46 calls)

     General routines
     calbec       :     45.37s CPU     46.00s WALL (      46 calls)
     fft          :      0.14s CPU      0.15s WALL (      19 calls)
     fftw         :    204.49s CPU    205.48s WALL (   95182 calls)
     davcio       :      0.00s CPU      2.65s WALL (       4 calls)
 
     Parallel routines
     fft_scatter  :     84.01s CPU     84.45s WALL (   95201 calls)
 
     PWSCF        :     1h35m CPU        1h37m WALL

 
   This run was terminated on:  16: 5:41   5May2019            

=------------------------------------------------------------------------------=
   JOB DONE.
=------------------------------------------------------------------------------=
