
     Program PWSCF v.6.1 (svn rev. 13369) starts on 10Feb2021 at 22:58: 7 

     This program is part of the open-source Quantum ESPRESSO suite
     for quantum simulation of materials; please cite
         "P. Giannozzi et al., J. Phys.:Condens. Matter 21 395502 (2009);
          URL http://www.quantum-espresso.org", 
     in publications or presentations arising from this work. More details at
     http://www.quantum-espresso.org/quote

     Parallel version (MPI), running on   160 processors
     K-points division:     npool     =       2
     R & G space division:  proc/nbgrp/npool/nimage =      80
     Reading input from scf.in
Warning: card &CELL ignored
Warning: card / ignored
Warning: card &IONS ignored
Warning: card / ignored

     Current dimensions of program PWSCF are:
     Max number of different atomic species (ntypx) = 10
     Max number of k-points (npk) = 120000
     Max angular momentum in pseudopotentials (lmaxx) =  3

     Subspace diagonalization in iterative solution of the eigenvalue problem:
     a serial algorithm will be used

 
     Parallelization info
     --------------------
     sticks:   dense  smooth     PW     G-vecs:    dense   smooth      PW
     Min         153     153     38                14461    14461    1806
     Max         154     154     39                14464    14464    1813
     Sum       12259   12259   3067              1156971  1156971  144701
 


     bravais-lattice index     =            0
     lattice parameter (alat)  =      28.4287  a.u.
     unit-cell volume          =   20997.3881 (a.u.)^3
     number of atoms/cell      =           72
     number of atomic types    =            3
     number of electrons       =       288.00 (up: 144.00, down: 144.00)
     number of Kohn-Sham states=          168
     kinetic-energy cutoff     =      55.0000  Ry
     charge density cutoff     =     220.0000  Ry
     convergence threshold     =      1.0E-08
     mixing beta               =       0.7000
     number of iterations used =            8  plain     mixing
     Exchange-correlation      = PBE ( 1  4  3  4 0 0)

     celldm(1)=  28.428666  celldm(2)=   0.000000  celldm(3)=   0.000000
     celldm(4)=   0.000000  celldm(5)=   0.000000  celldm(6)=   0.000000

     crystal axes: (cart. coord. in units of alat)
               a(1) = (   1.000000   0.000000   0.000000 )  
               a(2) = (  -0.499999   0.866026   0.000000 )  
               a(3) = (   0.000000   0.000000   1.055273 )  

     reciprocal axes: (cart. coord. in units 2 pi/alat)
               b(1) = (  1.000000  0.577349  0.000000 )  
               b(2) = (  0.000000  1.154700  0.000000 )  
               b(3) = (  0.000000  0.000000  0.947622 )  


     PseudoPot. # 1 for B  read from file:
     ~/pseudo-ONCV-proj/B_ONCV_PBE-1.0.upf
     MD5 check sum: Not computed, couldn't open file
     Pseudo is Norm-conserving, Zval =  3.0
     Generated using ONCVPSP code by D. R. Hamann
     Using radial grid of 1534 points,  4 beta functions with: 
                l(1) =   0
                l(2) =   0
                l(3) =   1
                l(4) =   1

     PseudoPot. # 2 for N  read from file:
     ~/pseudo-ONCV-proj/N_ONCV_PBE-1.0.upf
     MD5 check sum: Not computed, couldn't open file
     Pseudo is Norm-conserving, Zval =  5.0
     Generated using ONCVPSP code by D. R. Hamann
     Using radial grid of 1058 points,  4 beta functions with: 
                l(1) =   0
                l(2) =   0
                l(3) =   1
                l(4) =   1

     PseudoPot. # 3 for C  read from file:
     ~/pseudo-ONCV-proj/C_ONCV_PBE-1.0.upf
     MD5 check sum: Not computed, couldn't open file
     Pseudo is Norm-conserving, Zval =  4.0
     Generated using ONCVPSP code by D. R. Hamann
     Using radial grid of 1248 points,  4 beta functions with: 
                l(1) =   0
                l(2) =   0
                l(3) =   1
                l(4) =   1

     atomic species   valence    mass     pseudopotential
        B              3.00    10.81100     B ( 1.00)
        N              5.00    14.00674     N ( 1.00)
        C              4.00    12.01070     C ( 1.00)

     Starting magnetic structure 
     atomic species   magnetization
        B            1.000
        N            0.000
        C            0.000

      2 Sym. Ops. (no inversion) found


                                    s                        frac. trans.

      isym =  1     identity                                     

 cryst.   s( 1) = (     1          0          0      )
                  (     0          1          0      )
                  (     0          0          1      )

 cart.    s( 1) = (  1.0000000 -0.0000000  0.0000000 )
                  (  0.0000000  1.0000000  0.0000000 )
                  (  0.0000000  0.0000000  1.0000000 )


      isym =  2     inv. 180 deg rotation - cart. axis [0,0,1]   

 cryst.   s( 2) = (     1          0          0      )
                  (     0          1          0      )
                  (     0          0         -1      )

 cart.    s( 2) = (  1.0000000 -0.0000000  0.0000000 )
                  (  0.0000000  1.0000000  0.0000000 )
                  (  0.0000000  0.0000000 -1.0000000 )


   Cartesian axes

     site n.     atom                  positions (alat units)
         1           B   tau(   1) = (  -0.0001399   0.0960752   0.5276366  )
         2           B   tau(   2) = (  -0.0832713   0.2406646   0.5276366  )
         3           B   tau(   3) = (  -0.1665470   0.3849027   0.5276366  )
         4           B   tau(   4) = (  -0.2501991   0.5291915   0.5276366  )
         5           B   tau(   5) = (  -0.3332477   0.6735957   0.5276366  )
         6           B   tau(   6) = (  -0.4166059   0.8179767   0.5276366  )
         7           B   tau(   7) = (   0.1666502   0.0960603   0.5276366  )
         8           B   tau(   8) = (   0.0832782   0.2404461   0.5276366  )
         9           B   tau(   9) = (   0.0006436   0.3852715   0.5276366  )
        10           B   tau(  10) = (  -0.0834613   0.5292482   0.5276366  )
        11           B   tau(  11) = (  -0.1668167   0.6736435   0.5276366  )
        12           B   tau(  12) = (  -0.2500117   0.8179060   0.5276366  )
        13           B   tau(  13) = (   0.3334867   0.0959588   0.5276366  )
        14           B   tau(  14) = (   0.2504293   0.2394697   0.5276366  )
        15           B   tau(  15) = (   0.1680121   0.3835200   0.5276366  )
        16           B   tau(  16) = (   0.0828110   0.5310928   0.5276366  )
        17           B   tau(  17) = (  -0.0007312   0.6744936   0.5276366  )
        18           B   tau(  18) = (  -0.0834862   0.8181790   0.5276366  )
        19           B   tau(  19) = (   0.5000762   0.0962689   0.5276366  )
        20           B   tau(  20) = (   0.4165055   0.2409072   0.5276366  )
        21           B   tau(  21) = (   0.3321651   0.3851579   0.5276366  )
        22           B   tau(  22) = (   0.1663063   0.6724347   0.5276366  )
        23           B   tau(  23) = (   0.0835520   0.8176011   0.5276366  )
        24           B   tau(  24) = (   0.6666809   0.0961407   0.5276366  )
        25           B   tau(  25) = (   0.5832677   0.2406169   0.5276366  )
        26           B   tau(  26) = (   0.4996906   0.3850126   0.5276366  )
        27           B   tau(  27) = (   0.4164097   0.5300890   0.5276366  )
        28           B   tau(  28) = (   0.3339424   0.6729270   0.5276366  )
        29           B   tau(  29) = (   0.2499433   0.8175888   0.5276366  )
        30           B   tau(  30) = (   0.8332570   0.0961317   0.5276366  )
        31           B   tau(  31) = (   0.7499679   0.2405439   0.5276366  )
        32           B   tau(  32) = (   0.6665481   0.3848807   0.5276366  )
        33           B   tau(  33) = (   0.5829889   0.5292655   0.5276366  )
        34           B   tau(  34) = (   0.5004891   0.6738575   0.5276366  )
        35           B   tau(  35) = (   0.4165190   0.8176007   0.5276366  )
        36           N   tau(  36) = (   0.0832560   0.0479756   0.5276366  )
        37           N   tau(  37) = (  -0.0001321   0.1921633   0.5276366  )
        38           N   tau(  38) = (  -0.0831266   0.3369068   0.5276366  )
        39           N   tau(  39) = (  -0.1669805   0.4811541   0.5276366  )
        40           N   tau(  40) = (  -0.2501564   0.6254644   0.5276366  )
        41           N   tau(  41) = (  -0.3333797   0.7697734   0.5276366  )
        42           N   tau(  42) = (   0.2500494   0.0480048   0.5276366  )
        43           N   tau(  43) = (   0.1667584   0.1920478   0.5276366  )
        44           N   tau(  44) = (   0.0836656   0.3362562   0.5276366  )
        45           N   tau(  45) = (  -0.0002938   0.4816785   0.5276366  )
        46           N   tau(  46) = (  -0.0836352   0.6257433   0.5276366  )
        47           N   tau(  47) = (  -0.1667343   0.7698971   0.5276366  )
        48           N   tau(  48) = (   0.4167718   0.0481730   0.5276366  )
        49           N   tau(  49) = (   0.3337512   0.1919934   0.5276366  )
        50           N   tau(  50) = (   0.2508806   0.3352805   0.5276366  )
        51           N   tau(  51) = (   0.0824689   0.6269789   0.5276366  )
        52           N   tau(  52) = (  -0.0001857   0.7703906   0.5276366  )
        53           N   tau(  53) = (   0.5834878   0.0479293   0.5276366  )
        54           N   tau(  54) = (   0.4999189   0.1926753   0.5276366  )
        55           N   tau(  55) = (   0.4161395   0.3376465   0.5276366  )
        56           N   tau(  56) = (   0.3315618   0.4833570   0.5276366  )
        57           N   tau(  57) = (   0.2510473   0.6228124   0.5276366  )
        58           N   tau(  58) = (   0.1671475   0.7689144   0.5276366  )
        59           N   tau(  59) = (   0.7499723   0.0477900   0.5276366  )
        60           N   tau(  60) = (   0.6665900   0.1924056   0.5276366  )
        61           N   tau(  61) = (   0.5830407   0.3369248   0.5276366  )
        62           N   tau(  62) = (   0.4991296   0.4813270   0.5276366  )
        63           N   tau(  63) = (   0.4170969   0.6257110   0.5276366  )
        64           N   tau(  64) = (   0.3330734   0.7689455   0.5276366  )
        65           N   tau(  65) = (   0.9164586   0.0477322   0.5276366  )
        66           N   tau(  66) = (   0.8332737   0.1923549   0.5276366  )
        67           N   tau(  67) = (   0.7498881   0.3367833   0.5276366  )
        68           N   tau(  68) = (   0.6662339   0.4811352   0.5276366  )
        69           N   tau(  69) = (   0.5833268   0.6254547   0.5276366  )
        70           N   tau(  70) = (   0.4999900   0.7697986   0.5276366  )
        71           C   tau(  71) = (   0.2499288   0.5291964   0.5276366  )
        72           C   tau(  72) = (   0.1706387   0.4834183   0.5276366  )

   Crystallographic axes

     site n.     atom                  positions (cryst. coord.)
         1           B   tau(   1) = (  0.0553290  0.1109380  0.5000000  )
         2           B   tau(   2) = (  0.0556761  0.2778954  0.5000000  )
         3           B   tau(   3) = (  0.0556761  0.4444471  0.5000000  )
         4           B   tau(   4) = (  0.0553290  0.6110573  0.5000000  )
         5           B   tau(   5) = (  0.0556519  0.7778008  0.5000000  )
         6           B   tau(   6) = (  0.0556519  0.9445175  0.5000000  )
         7           B   tau(   7) = (  0.2221105  0.1109208  0.5000000  )
         8           B   tau(   8) = (  0.2220995  0.2776431  0.5000000  )
         9           B   tau(   9) = (  0.2230796  0.4448729  0.5000000  )
        10           B   tau(  10) = (  0.2220995  0.6111227  0.5000000  )
        11           B   tau(  11) = (  0.2221105  0.7778560  0.5000000  )
        12           B   tau(  12) = (  0.2222053  0.9444358  0.5000000  )
        13           B   tau(  13) = (  0.3888884  0.1108037  0.5000000  )
        14           B   tau(  14) = (  0.3886868  0.2765156  0.5000000  )
        15           B   tau(  15) = (  0.3894368  0.4428504  0.5000000  )
        16           B   tau(  16) = (  0.3894368  0.6132528  0.5000000  )
        17           B   tau(  17) = (  0.3886868  0.7788376  0.5000000  )
        18           B   tau(  18) = (  0.3888884  0.9447511  0.5000000  )
        19           B   tau(  19) = (  0.5556569  0.1111616  0.5000000  )
        20           B   tau(  20) = (  0.5555929  0.2781755  0.5000000  )
        21           B   tau(  21) = (  0.5545356  0.4447418  0.5000000  )
        22           B   tau(  22) = (  0.5545356  0.7764601  0.5000000  )
        23           B   tau(  23) = (  0.5555929  0.9440838  0.5000000  )
        24           B   tau(  24) = (  0.7221876  0.1110136  0.5000000  )
        25           B   tau(  25) = (  0.7221876  0.2778403  0.5000000  )
        26           B   tau(  26) = (  0.7219771  0.4445740  0.5000000  )
        27           B   tau(  27) = (  0.7224559  0.6120936  0.5000000  )
        28           B   tau(  28) = (  0.7224559  0.7770286  0.5000000  )
        29           B   tau(  29) = (  0.7219771  0.9440695  0.5000000  )
        30           B   tau(  30) = (  0.8887585  0.1110032  0.5000000  )
        31           B   tau(  31) = (  0.8888457  0.2777560  0.5000000  )
        32           B   tau(  32) = (  0.8887585  0.4444216  0.5000000  )
        33           B   tau(  33) = (  0.8885597  0.6111427  0.5000000  )
        34           B   tau(  34) = (  0.8895399  0.7781031  0.5000000  )
        35           B   tau(  35) = (  0.8885596  0.9440833  0.5000000  )
        36           N   tau(  36) = (  0.1109546  0.0553974  0.5000000  )
        37           N   tau(  37) = (  0.1108132  0.2218909  0.5000000  )
        38           N   tau(  38) = (  0.1113861  0.3890262  0.5000000  )
        39           N   tau(  39) = (  0.1108132  0.5555885  0.5000000  )
        40           N   tau(  40) = (  0.1109546  0.7222236  0.5000000  )
        41           N   tau(  41) = (  0.1110480  0.8888572  0.5000000  )
        42           N   tau(  42) = (  0.2777648  0.0554311  0.5000000  )
        43           N   tau(  43) = (  0.2776369  0.2217575  0.5000000  )
        44           N   tau(  44) = (  0.2778026  0.3882749  0.5000000  )
        45           N   tau(  45) = (  0.2778026  0.5561940  0.5000000  )
        46           N   tau(  46) = (  0.2776369  0.7225456  0.5000000  )
        47           N   tau(  47) = (  0.2777648  0.8890000  0.5000000  )
        48           N   tau(  48) = (  0.4445845  0.0556254  0.5000000  )
        49           N   tau(  49) = (  0.4445983  0.2216948  0.5000000  )
        50           N   tau(  50) = (  0.4444543  0.3871483  0.5000000  )
        51           N   tau(  51) = (  0.4444543  0.7239723  0.5000000  )
        52           N   tau(  52) = (  0.4445983  0.8895698  0.5000000  )
        53           N   tau(  53) = (  0.6111597  0.0553439  0.5000000  )
        54           N   tau(  54) = (  0.6111597  0.2224821  0.5000000  )
        55           N   tau(  55) = (  0.6110793  0.3898803  0.5000000  )
        56           N   tau(  56) = (  0.6106273  0.5581322  0.5000000  )
        57           N   tau(  57) = (  0.6106273  0.7191614  0.5000000  )
        58           N   tau(  58) = (  0.6110793  0.8878653  0.5000000  )
        59           N   tau(  59) = (  0.7775638  0.0551831  0.5000000  )
        60           N   tau(  60) = (  0.7776751  0.2221707  0.5000000  )
        61           N   tau(  61) = (  0.7775638  0.3890470  0.5000000  )
        62           N   tau(  62) = (  0.7770231  0.5557881  0.5000000  )
        63           N   tau(  63) = (  0.7783503  0.7225083  0.5000000  )
        64           N   tau(  64) = (  0.7770231  0.8879012  0.5000000  )
        65           N   tau(  65) = (  0.9440167  0.0551163  0.5000000  )
        66           N   tau(  66) = (  0.9443295  0.2221122  0.5000000  )
        67           N   tau(  67) = (  0.9443296  0.3888836  0.5000000  )
        68           N   tau(  68) = (  0.9440167  0.5555667  0.5000000  )
        69           N   tau(  69) = (  0.9444322  0.7222123  0.5000000  )
        70           N   tau(  70) = (  0.9444322  0.8888862  0.5000000  )
        71           C   tau(  71) = (  0.5554597  0.6110630  0.5000000  )
        72           C   tau(  72) = (  0.4497397  0.5582030  0.5000000  )

     number of k points=     1
                       cart. coord. in units 2pi/alat
        k(    1) = (   0.0000000   0.0000000   0.0000000), wk =   1.0000000

                       cryst. coord.
        k(    1) = (   0.0000000   0.0000000   0.0000000), wk =   1.0000000

     Dense  grid:  1156971 G-vectors     FFT dimensions: ( 135, 135, 144)

     Occupations read from input 

      Spin-up

        1.0000   1.0000   1.0000   1.0000   1.0000   1.0000   1.0000   1.0000
        1.0000   1.0000   1.0000   1.0000   1.0000   1.0000   1.0000   1.0000
        1.0000   1.0000   1.0000   1.0000   1.0000   1.0000   1.0000   1.0000
        1.0000   1.0000   1.0000   1.0000   1.0000   1.0000   1.0000   1.0000
        1.0000   1.0000   1.0000   1.0000   1.0000   1.0000   1.0000   1.0000
        1.0000   1.0000   1.0000   1.0000   1.0000   1.0000   1.0000   1.0000
        1.0000   1.0000   1.0000   1.0000   1.0000   1.0000   1.0000   1.0000
        1.0000   1.0000   1.0000   1.0000   1.0000   1.0000   1.0000   1.0000
        1.0000   1.0000   1.0000   1.0000   1.0000   1.0000   1.0000   1.0000
        1.0000   1.0000   1.0000   1.0000   1.0000   1.0000   1.0000   1.0000
        1.0000   1.0000   1.0000   1.0000   1.0000   1.0000   1.0000   1.0000
        1.0000   1.0000   1.0000   1.0000   1.0000   1.0000   1.0000   1.0000
        1.0000   1.0000   1.0000   1.0000   1.0000   1.0000   1.0000   1.0000
        1.0000   1.0000   1.0000   1.0000   1.0000   1.0000   1.0000   1.0000
        1.0000   1.0000   1.0000   1.0000   1.0000   1.0000   1.0000   1.0000
        1.0000   1.0000   1.0000   1.0000   1.0000   1.0000   1.0000   1.0000
        1.0000   1.0000   1.0000   1.0000   1.0000   1.0000   1.0000   1.0000
        1.0000   1.0000   1.0000   1.0000   1.0000   1.0000   1.0000   0.0000
        1.0000   0.0000   0.0000   0.0000   0.0000   0.0000   0.0000   0.0000
        0.0000   0.0000   0.0000   0.0000   0.0000   0.0000   0.0000   0.0000
        0.0000   0.0000   0.0000   0.0000   0.0000   0.0000   0.0000   0.0000

      Spin-down

        1.0000   1.0000   1.0000   1.0000   1.0000   1.0000   1.0000   1.0000
        1.0000   1.0000   1.0000   1.0000   1.0000   1.0000   1.0000   1.0000
        1.0000   1.0000   1.0000   1.0000   1.0000   1.0000   1.0000   1.0000
        1.0000   1.0000   1.0000   1.0000   1.0000   1.0000   1.0000   1.0000
        1.0000   1.0000   1.0000   1.0000   1.0000   1.0000   1.0000   1.0000
        1.0000   1.0000   1.0000   1.0000   1.0000   1.0000   1.0000   1.0000
        1.0000   1.0000   1.0000   1.0000   1.0000   1.0000   1.0000   1.0000
        1.0000   1.0000   1.0000   1.0000   1.0000   1.0000   1.0000   1.0000
        1.0000   1.0000   1.0000   1.0000   1.0000   1.0000   1.0000   1.0000
        1.0000   1.0000   1.0000   1.0000   1.0000   1.0000   1.0000   1.0000
        1.0000   1.0000   1.0000   1.0000   1.0000   1.0000   1.0000   1.0000
        1.0000   1.0000   1.0000   1.0000   1.0000   1.0000   1.0000   1.0000
        1.0000   1.0000   1.0000   1.0000   1.0000   1.0000   1.0000   1.0000
        1.0000   1.0000   1.0000   1.0000   1.0000   1.0000   1.0000   1.0000
        1.0000   1.0000   1.0000   1.0000   1.0000   1.0000   1.0000   1.0000
        1.0000   1.0000   1.0000   1.0000   1.0000   1.0000   1.0000   1.0000
        1.0000   1.0000   1.0000   1.0000   1.0000   1.0000   1.0000   1.0000
        1.0000   1.0000   1.0000   1.0000   1.0000   1.0000   1.0000   1.0000
        0.0000   0.0000   0.0000   0.0000   0.0000   0.0000   0.0000   0.0000
        0.0000   0.0000   0.0000   0.0000   0.0000   0.0000   0.0000   0.0000
        0.0000   0.0000   0.0000   0.0000   0.0000   0.0000   0.0000   0.0000

     Estimated max dynamical RAM per process >      68.84MB

     Estimated total allocated dynamical RAM >   11014.86MB
     Generating pointlists ...
     new r_m :   0.0393 (alat units)  1.1184 (a.u.) for type    1
     new r_m :   0.0386 (alat units)  1.0979 (a.u.) for type    2
     new r_m :   0.0378 (alat units)  1.0737 (a.u.) for type    3

     Initial potential from superposition of free atoms
     Check: negative starting charge=(component1):   -0.001385
     Check: negative starting charge=(component2):   -0.001913

     starting charge  287.99093, renormalised to  288.00000

     negative rho (up, down):  1.385E-03 1.913E-03
     Starting wfc are  288 randomized atomic wfcs

     total cpu time spent up to now is        3.1 secs

     per-process dynamical memory:    91.4 Mb

     Self-consistent Calculation

     iteration #  1     ecut=    55.00 Ry     beta=0.70
     Davidson diagonalization with overlap
     ethr =  1.00E-02,  avg # of iterations =  2.5

     negative rho (up, down):  1.551E-04 3.038E-04

     total cpu time spent up to now is        4.5 secs

     total energy              =    -916.50826917 Ry
     Harris-Foulkes estimate   =    -922.43361836 Ry
     estimated scf accuracy    <      16.96712780 Ry

     total magnetization       =    -0.00 Bohr mag/cell
     absolute magnetization    =    19.41 Bohr mag/cell

     iteration #  2     ecut=    55.00 Ry     beta=0.70
     Davidson diagonalization with overlap
     ethr =  5.89E-03,  avg # of iterations =  3.0

     negative rho (up, down):  6.303E-05 1.179E-04

     total cpu time spent up to now is        5.9 secs

     total energy              =    -921.22419675 Ry
     Harris-Foulkes estimate   =    -925.70686699 Ry
     estimated scf accuracy    <      10.33378828 Ry

     total magnetization       =    -0.00 Bohr mag/cell
     absolute magnetization    =    15.06 Bohr mag/cell

     iteration #  3     ecut=    55.00 Ry     beta=0.70
     Davidson diagonalization with overlap
     ethr =  3.59E-03,  avg # of iterations =  2.5

     negative rho (up, down):  1.649E-05 3.257E-05

     total cpu time spent up to now is        7.2 secs

     total energy              =    -923.09515217 Ry
     Harris-Foulkes estimate   =    -923.37961734 Ry
     estimated scf accuracy    <       0.89397474 Ry

     total magnetization       =     0.00 Bohr mag/cell
     absolute magnetization    =    10.24 Bohr mag/cell

     iteration #  4     ecut=    55.00 Ry     beta=0.70
     Davidson diagonalization with overlap
     ethr =  3.10E-04,  avg # of iterations = 14.0

     total cpu time spent up to now is       10.3 secs

     total energy              =    -923.49163580 Ry
     Harris-Foulkes estimate   =    -923.78387086 Ry
     estimated scf accuracy    <       1.25678608 Ry

     total magnetization       =     0.00 Bohr mag/cell
     absolute magnetization    =     7.94 Bohr mag/cell

     iteration #  5     ecut=    55.00 Ry     beta=0.70
     Davidson diagonalization with overlap
     ethr =  3.10E-04,  avg # of iterations =  8.5

     negative rho (up, down):  6.234E-09 1.207E-08

     total cpu time spent up to now is       11.9 secs

     total energy              =    -923.64871600 Ry
     Harris-Foulkes estimate   =    -923.64998859 Ry
     estimated scf accuracy    <       0.04194336 Ry

     total magnetization       =     0.00 Bohr mag/cell
     absolute magnetization    =     5.57 Bohr mag/cell

     iteration #  6     ecut=    55.00 Ry     beta=0.70
     Davidson diagonalization with overlap
     ethr =  1.46E-05,  avg # of iterations =  9.5

     total cpu time spent up to now is       14.8 secs

     total energy              =    -923.67344590 Ry
     Harris-Foulkes estimate   =    -923.66082154 Ry
     estimated scf accuracy    <       0.00928292 Ry

     total magnetization       =     0.00 Bohr mag/cell
     absolute magnetization    =     4.56 Bohr mag/cell

     iteration #  7     ecut=    55.00 Ry     beta=0.70
     Davidson diagonalization with overlap
     ethr =  3.22E-06,  avg # of iterations =  8.0

     total cpu time spent up to now is       18.1 secs

     total energy              =    -923.68327319 Ry
     Harris-Foulkes estimate   =    -923.68138854 Ry
     estimated scf accuracy    <       0.00527159 Ry

     total magnetization       =    -0.00 Bohr mag/cell
     absolute magnetization    =     3.17 Bohr mag/cell

     iteration #  8     ecut=    55.00 Ry     beta=0.70
     Davidson diagonalization with overlap
     ethr =  1.83E-06,  avg # of iterations =  3.5

     total cpu time spent up to now is       19.5 secs

     total energy              =    -923.68560801 Ry
     Harris-Foulkes estimate   =    -923.68493447 Ry
     estimated scf accuracy    <       0.00119923 Ry

     total magnetization       =     0.00 Bohr mag/cell
     absolute magnetization    =     2.55 Bohr mag/cell

     iteration #  9     ecut=    55.00 Ry     beta=0.70
     Davidson diagonalization with overlap
     ethr =  4.16E-07,  avg # of iterations =  3.5

     total cpu time spent up to now is       21.2 secs

     total energy              =    -923.68641694 Ry
     Harris-Foulkes estimate   =    -923.68634588 Ry
     estimated scf accuracy    <       0.00026970 Ry

     total magnetization       =     0.00 Bohr mag/cell
     absolute magnetization    =     2.09 Bohr mag/cell

     iteration # 10     ecut=    55.00 Ry     beta=0.70
     Davidson diagonalization with overlap
     ethr =  9.36E-08,  avg # of iterations =  3.5

     total cpu time spent up to now is       22.8 secs

     total energy              =    -923.68659261 Ry
     Harris-Foulkes estimate   =    -923.68661144 Ry
     estimated scf accuracy    <       0.00007075 Ry

     total magnetization       =    -0.00 Bohr mag/cell
     absolute magnetization    =     1.88 Bohr mag/cell

     iteration # 11     ecut=    55.00 Ry     beta=0.70
     Davidson diagonalization with overlap
     ethr =  2.46E-08,  avg # of iterations =  3.0

     total cpu time spent up to now is       24.2 secs

     total energy              =    -923.68661944 Ry
     Harris-Foulkes estimate   =    -923.68661993 Ry
     estimated scf accuracy    <       0.00000313 Ry

     total magnetization       =     0.00 Bohr mag/cell
     absolute magnetization    =     1.82 Bohr mag/cell

     iteration # 12     ecut=    55.00 Ry     beta=0.70
     Davidson diagonalization with overlap
     ethr =  1.09E-09,  avg # of iterations =  3.5

     total cpu time spent up to now is       25.7 secs

     total energy              =    -923.68662110 Ry
     Harris-Foulkes estimate   =    -923.68662135 Ry
     estimated scf accuracy    <       0.00000119 Ry

     total magnetization       =     0.00 Bohr mag/cell
     absolute magnetization    =     1.81 Bohr mag/cell

     iteration # 13     ecut=    55.00 Ry     beta=0.70
     Davidson diagonalization with overlap
     ethr =  4.13E-10,  avg # of iterations =  3.5

     total cpu time spent up to now is       27.0 secs

     total energy              =    -923.68662153 Ry
     Harris-Foulkes estimate   =    -923.68662142 Ry
     estimated scf accuracy    <       0.00000008 Ry

     total magnetization       =    -0.00 Bohr mag/cell
     absolute magnetization    =     1.81 Bohr mag/cell

     iteration # 14     ecut=    55.00 Ry     beta=0.70
     Davidson diagonalization with overlap
     ethr =  2.74E-11,  avg # of iterations =  4.0

     total cpu time spent up to now is       28.5 secs

     total energy              =    -923.68662159 Ry
     Harris-Foulkes estimate   =    -923.68662158 Ry
     estimated scf accuracy    <       0.00000003 Ry

     total magnetization       =    -0.00 Bohr mag/cell
     absolute magnetization    =     1.81 Bohr mag/cell

     iteration # 15     ecut=    55.00 Ry     beta=0.70
     Davidson diagonalization with overlap
     ethr =  1.17E-11,  avg # of iterations =  3.5

     total cpu time spent up to now is       29.9 secs

     total energy              =    -923.68662161 Ry
     Harris-Foulkes estimate   =    -923.68662160 Ry
     estimated scf accuracy    <       0.00000001 Ry

     total magnetization       =    -0.00 Bohr mag/cell
     absolute magnetization    =     1.81 Bohr mag/cell

     iteration # 16     ecut=    55.00 Ry     beta=0.70
     Davidson diagonalization with overlap
     ethr =  3.96E-12,  avg # of iterations =  4.0
 
     Magnetic moment per site:
     atom:    1    charge:    0.8593    magn:    0.0006    constr:    0.0000
     atom:    2    charge:    0.8588    magn:    0.0024    constr:    0.0000
     atom:    3    charge:    0.8588    magn:    0.0024    constr:    0.0000
     atom:    4    charge:    0.8593    magn:    0.0006    constr:    0.0000
     atom:    5    charge:    0.8614    magn:    0.0016    constr:    0.0000
     atom:    6    charge:    0.8614    magn:    0.0016    constr:    0.0000
     atom:    7    charge:    0.8637    magn:    0.0020    constr:    0.0000
     atom:    8    charge:    0.8607    magn:    0.0019    constr:    0.0000
     atom:    9    charge:    0.8571    magn:    0.0084    constr:    0.0000
     atom:   10    charge:    0.8607    magn:    0.0019    constr:    0.0000
     atom:   11    charge:    0.8637    magn:    0.0020    constr:    0.0000
     atom:   12    charge:    0.8628    magn:    0.0062    constr:    0.0000
     atom:   13    charge:    0.8630    magn:    0.0019    constr:    0.0000
     atom:   14    charge:    0.8676    magn:    0.0072    constr:    0.0000
     atom:   15    charge:    0.8741    magn:    0.0243    constr:    0.0000
     atom:   16    charge:    0.8741    magn:    0.0243    constr:    0.0000
     atom:   17    charge:    0.8676    magn:    0.0072    constr:    0.0000
     atom:   18    charge:    0.8630    magn:    0.0019    constr:    0.0000
     atom:   19    charge:    0.8597    magn:    0.0016    constr:    0.0000
     atom:   20    charge:    0.8561    magn:    0.0002    constr:    0.0000
     atom:   21    charge:    0.8538    magn:    0.0034    constr:    0.0000
     atom:   22    charge:    0.8538    magn:    0.0034    constr:    0.0000
     atom:   23    charge:    0.8561    magn:    0.0002    constr:    0.0000
     atom:   24    charge:    0.8600    magn:    0.0018    constr:    0.0000
     atom:   25    charge:    0.8600    magn:    0.0018    constr:    0.0000
     atom:   26    charge:    0.8613    magn:    0.0031    constr:    0.0000
     atom:   27    charge:    0.8646    magn:    0.0129    constr:    0.0000
     atom:   28    charge:    0.8646    magn:    0.0129    constr:    0.0000
     atom:   29    charge:    0.8613    magn:    0.0031    constr:    0.0000
     atom:   30    charge:    0.8612    magn:    0.0007    constr:    0.0000
     atom:   31    charge:    0.8608    magn:    0.0056    constr:    0.0000
     atom:   32    charge:    0.8612    magn:    0.0007    constr:    0.0000
     atom:   33    charge:    0.8581    magn:    0.0009    constr:    0.0000
     atom:   34    charge:    0.8664    magn:    0.0055    constr:    0.0000
     atom:   35    charge:    0.8581    magn:    0.0009    constr:    0.0000
     atom:   36    charge:    2.7263    magn:   -0.0004    constr:    0.0000
     atom:   37    charge:    2.7224    magn:   -0.0011    constr:    0.0000
     atom:   38    charge:    2.7203    magn:   -0.0153    constr:    0.0000
     atom:   39    charge:    2.7224    magn:   -0.0011    constr:    0.0000
     atom:   40    charge:    2.7263    magn:   -0.0004    constr:    0.0000
     atom:   41    charge:    2.7218    magn:   -0.0110    constr:    0.0000
     atom:   42    charge:    2.7253    magn:   -0.0042    constr:    0.0000
     atom:   43    charge:    2.7246    magn:   -0.0109    constr:    0.0000
     atom:   44    charge:    2.7184    magn:   -0.0205    constr:    0.0000
     atom:   45    charge:    2.7184    magn:   -0.0205    constr:    0.0000
     atom:   46    charge:    2.7246    magn:   -0.0109    constr:    0.0000
     atom:   47    charge:    2.7253    magn:   -0.0042    constr:    0.0000
     atom:   48    charge:    2.7279    magn:   -0.0055    constr:    0.0000
     atom:   49    charge:    2.7267    magn:   -0.0008    constr:    0.0000
     atom:   50    charge:    2.7315    magn:   -0.0009    constr:    0.0000
     atom:   51    charge:    2.7315    magn:   -0.0009    constr:    0.0000
     atom:   52    charge:    2.7267    magn:   -0.0008    constr:    0.0000
     atom:   53    charge:    2.7235    magn:   -0.0030    constr:    0.0000
     atom:   54    charge:    2.7235    magn:   -0.0030    constr:    0.0000
     atom:   55    charge:    2.7190    magn:   -0.0181    constr:    0.0000
     atom:   56    charge:    2.6936    magn:   -0.0459    constr:    0.0000
     atom:   57    charge:    2.6936    magn:   -0.0459    constr:    0.0000
     atom:   58    charge:    2.7190    magn:   -0.0181    constr:    0.0000
     atom:   59    charge:    2.7237    magn:   -0.0043    constr:    0.0000
     atom:   60    charge:    2.7207    magn:   -0.0104    constr:    0.0000
     atom:   61    charge:    2.7237    magn:   -0.0043    constr:    0.0000
     atom:   62    charge:    2.7207    magn:   -0.0015    constr:    0.0000
     atom:   63    charge:    2.7300    magn:   -0.0212    constr:    0.0000
     atom:   64    charge:    2.7207    magn:   -0.0015    constr:    0.0000
     atom:   65    charge:    2.7240    magn:   -0.0044    constr:    0.0000
     atom:   66    charge:    2.7237    magn:   -0.0034    constr:    0.0000
     atom:   67    charge:    2.7237    magn:   -0.0034    constr:    0.0000
     atom:   68    charge:    2.7240    magn:   -0.0044    constr:    0.0000
     atom:   69    charge:    2.7266    magn:   -0.0041    constr:    0.0000
     atom:   70    charge:    2.7266    magn:   -0.0041    constr:    0.0000
     atom:   71    charge:    1.5621    magn:    0.1662    constr:    0.0000
     atom:   72    charge:    1.6034    magn:   -0.1382    constr:    0.0000

     total cpu time spent up to now is       31.4 secs

     End of self-consistent calculation

 ------ SPIN UP ------------


          k = 0.0000 0.0000 0.0000 (144701 PWs)   bands (ev):

   -21.8558 -21.1781 -20.8443 -20.8133 -20.7600 -20.7323 -20.6297 -20.1193
   -19.9284 -19.8246 -19.7927 -19.7734 -19.6693 -19.4992 -19.4636 -19.3915
   -19.3371 -19.3184 -19.1088 -18.7019 -18.5051 -18.4120 -18.3706 -18.3480
   -18.3462 -18.3182 -18.3172 -18.2835 -18.2794 -18.2774 -18.2427 -18.1685
   -18.1410 -17.7573 -17.6533 -15.6782 -13.1434 -12.5493 -12.5489 -12.2323
   -12.0042 -11.8035 -11.7831 -11.7634 -11.7583 -11.7181 -11.7020 -11.7000
   -11.6795 -11.6150 -11.5960 -11.5760 -11.5239 -11.0230 -10.8018 -10.6761
   -10.6265 -10.5787 -10.5179 -10.4415 -10.4140  -9.6045  -9.4483  -9.2413
    -9.2202  -9.1934  -9.1784  -9.1358  -9.1261  -9.0517  -9.0423  -9.0252
    -9.0011  -8.9963  -8.9790  -8.9749  -8.9640  -8.9213  -8.8091  -8.6374
    -8.4924  -8.2246  -8.2125  -8.1663  -8.1339  -8.0490  -8.0305  -7.8610
    -7.8297  -7.7242  -7.7034  -7.6535  -7.6358  -7.5495  -7.5266  -7.3952
    -7.3274  -7.3127  -7.2620  -7.2508  -7.1377  -7.1142  -7.0361  -7.0237
    -7.0082  -6.9712  -6.8779  -6.8571  -6.8570  -6.8344  -6.8112  -6.7122
    -6.5227  -6.3882  -6.2672  -6.2539  -6.2173  -6.1914  -6.0405  -6.0203
    -5.9602  -5.9089  -5.9069  -5.8696  -5.4347  -5.0168  -4.9769  -4.9051
    -4.7788  -4.7623  -4.7438  -4.7318  -4.7128  -4.7066  -4.6709  -4.6683
    -4.6659  -4.6602  -4.5941  -4.5436  -4.4826  -3.9575  -3.6497  -3.0894
     0.2422   1.0125   1.0552   1.0917   1.1513   1.1514   1.4251   1.7131
     1.7711   1.7755   1.7939   1.8110   1.8453   1.8528   1.8660   1.8788
     1.9046   1.9091   1.9284   1.9532   1.9579   1.9617   1.9732   2.0256

     occupation numbers 
     1.0000   1.0000   1.0000   1.0000   1.0000   1.0000   1.0000   1.0000
     1.0000   1.0000   1.0000   1.0000   1.0000   1.0000   1.0000   1.0000
     1.0000   1.0000   1.0000   1.0000   1.0000   1.0000   1.0000   1.0000
     1.0000   1.0000   1.0000   1.0000   1.0000   1.0000   1.0000   1.0000
     1.0000   1.0000   1.0000   1.0000   1.0000   1.0000   1.0000   1.0000
     1.0000   1.0000   1.0000   1.0000   1.0000   1.0000   1.0000   1.0000
     1.0000   1.0000   1.0000   1.0000   1.0000   1.0000   1.0000   1.0000
     1.0000   1.0000   1.0000   1.0000   1.0000   1.0000   1.0000   1.0000
     1.0000   1.0000   1.0000   1.0000   1.0000   1.0000   1.0000   1.0000
     1.0000   1.0000   1.0000   1.0000   1.0000   1.0000   1.0000   1.0000
     1.0000   1.0000   1.0000   1.0000   1.0000   1.0000   1.0000   1.0000
     1.0000   1.0000   1.0000   1.0000   1.0000   1.0000   1.0000   1.0000
     1.0000   1.0000   1.0000   1.0000   1.0000   1.0000   1.0000   1.0000
     1.0000   1.0000   1.0000   1.0000   1.0000   1.0000   1.0000   1.0000
     1.0000   1.0000   1.0000   1.0000   1.0000   1.0000   1.0000   1.0000
     1.0000   1.0000   1.0000   1.0000   1.0000   1.0000   1.0000   1.0000
     1.0000   1.0000   1.0000   1.0000   1.0000   1.0000   1.0000   1.0000
     1.0000   1.0000   1.0000   1.0000   1.0000   1.0000   1.0000   0.0000
     1.0000   0.0000   0.0000   0.0000   0.0000   0.0000   0.0000   0.0000
     0.0000   0.0000   0.0000   0.0000   0.0000   0.0000   0.0000   0.0000
     0.0000   0.0000   0.0000   0.0000   0.0000   0.0000   0.0000   0.0000

 ------ SPIN DOWN ----------


          k = 0.0000 0.0000 0.0000 (144701 PWs)   bands (ev):

   -21.8149 -21.1781 -20.8559 -20.8205 -20.7641 -20.7372 -20.6386 -20.1178
   -19.9532 -19.8409 -19.7991 -19.7772 -19.6774 -19.5024 -19.4786 -19.4143
   -19.3405 -19.3228 -19.1261 -18.7345 -18.5146 -18.4245 -18.3827 -18.3614
   -18.3522 -18.3291 -18.3260 -18.2923 -18.2859 -18.2855 -18.2508 -18.1880
   -18.1635 -17.7758 -17.6656 -15.8662 -13.0975 -12.5449 -12.5390 -12.2173
   -11.9909 -11.7995 -11.7808 -11.7609 -11.7577 -11.7176 -11.6997 -11.6983
   -11.6730 -11.6282 -11.5960 -11.5694 -11.5268 -11.0120 -10.7956 -10.6719
   -10.6199 -10.5767 -10.5133 -10.4553 -10.4099  -9.5899  -9.4438  -9.2400
    -9.2252  -9.1996  -9.1821  -9.1359  -9.1237  -9.0515  -9.0416  -9.0308
    -9.0003  -8.9961  -8.9780  -8.9619  -8.9452  -8.9176  -8.8192  -8.6369
    -8.4286  -8.2328  -8.2180  -8.1645  -8.1339  -8.0469  -8.0357  -7.8646
    -7.8342  -7.7245  -7.7004  -7.6539  -7.6376  -7.5526  -7.5303  -7.3964
    -7.3301  -7.3153  -7.2651  -7.2569  -7.1443  -7.0471  -7.0400  -7.0298
    -7.0128  -6.9737  -6.9007  -6.8742  -6.8689  -6.8372  -6.8084  -6.7291
    -6.5368  -6.3606  -6.2904  -6.2882  -6.2107  -6.1851  -6.0706  -6.0433
    -5.9680  -5.9110  -5.9104  -5.8839  -5.4558  -5.0258  -4.9988  -4.9333
    -4.8042  -4.7749  -4.7624  -4.7419  -4.7301  -4.7263  -4.7129  -4.6914
    -4.6727  -4.6702  -4.6142  -4.5726  -4.5153  -4.1217  -3.6822  -3.4739
     0.7621   1.0707   1.0787   1.1305   1.1885   1.2082   1.5531   1.7441
     1.7975   1.8174   1.8246   1.8480   1.8642   1.8900   1.9021   1.9147
     1.9165   1.9206   1.9443   1.9655   1.9718   1.9847   2.0199   2.0591

     occupation numbers 
     1.0000   1.0000   1.0000   1.0000   1.0000   1.0000   1.0000   1.0000
     1.0000   1.0000   1.0000   1.0000   1.0000   1.0000   1.0000   1.0000
     1.0000   1.0000   1.0000   1.0000   1.0000   1.0000   1.0000   1.0000
     1.0000   1.0000   1.0000   1.0000   1.0000   1.0000   1.0000   1.0000
     1.0000   1.0000   1.0000   1.0000   1.0000   1.0000   1.0000   1.0000
     1.0000   1.0000   1.0000   1.0000   1.0000   1.0000   1.0000   1.0000
     1.0000   1.0000   1.0000   1.0000   1.0000   1.0000   1.0000   1.0000
     1.0000   1.0000   1.0000   1.0000   1.0000   1.0000   1.0000   1.0000
     1.0000   1.0000   1.0000   1.0000   1.0000   1.0000   1.0000   1.0000
     1.0000   1.0000   1.0000   1.0000   1.0000   1.0000   1.0000   1.0000
     1.0000   1.0000   1.0000   1.0000   1.0000   1.0000   1.0000   1.0000
     1.0000   1.0000   1.0000   1.0000   1.0000   1.0000   1.0000   1.0000
     1.0000   1.0000   1.0000   1.0000   1.0000   1.0000   1.0000   1.0000
     1.0000   1.0000   1.0000   1.0000   1.0000   1.0000   1.0000   1.0000
     1.0000   1.0000   1.0000   1.0000   1.0000   1.0000   1.0000   1.0000
     1.0000   1.0000   1.0000   1.0000   1.0000   1.0000   1.0000   1.0000
     1.0000   1.0000   1.0000   1.0000   1.0000   1.0000   1.0000   1.0000
     1.0000   1.0000   1.0000   1.0000   1.0000   1.0000   1.0000   1.0000
     0.0000   0.0000   0.0000   0.0000   0.0000   0.0000   0.0000   0.0000
     0.0000   0.0000   0.0000   0.0000   0.0000   0.0000   0.0000   0.0000
     0.0000   0.0000   0.0000   0.0000   0.0000   0.0000   0.0000   0.0000

     highest occupied, lowest unoccupied level (ev):    -3.4739   -3.0894

!    total energy              =    -923.68662161 Ry
     Harris-Foulkes estimate   =    -923.68662161 Ry
     estimated scf accuracy    <          5.1E-09 Ry

     The total energy is the sum of the following terms:

     one-electron contribution =   -6004.06664833 Ry
     hartree contribution      =    3060.18149020 Ry
     xc contribution           =    -264.85128562 Ry
     ewald contribution        =    2285.04982214 Ry

     total magnetization       =     0.00 Bohr mag/cell
     absolute magnetization    =     1.81 Bohr mag/cell

     convergence has been achieved in  16 iterations

     Writing output data file BN.save
 
     init_run     :      2.47s CPU      2.96s WALL (       1 calls)
     electrons    :     28.00s CPU     28.56s WALL (       1 calls)

     Called by init_run:
     wfcinit      :      0.54s CPU      0.57s WALL (       1 calls)
     wfcinit:atom :      0.00s CPU      0.01s WALL (       1 calls)
     wfcinit:wfcr :      0.52s CPU      0.53s WALL (       1 calls)
     potinit      :      0.41s CPU      0.42s WALL (       1 calls)

     Called by electrons:
     c_bands      :     25.21s CPU     25.64s WALL (      16 calls)
     sum_band     :      1.53s CPU      1.56s WALL (      16 calls)
     v_of_rho     :      0.79s CPU      0.80s WALL (      17 calls)
     v_h          :      0.03s CPU      0.03s WALL (      17 calls)
     v_xc         :      0.76s CPU      0.77s WALL (      17 calls)
     mix_rho      :      0.23s CPU      0.24s WALL (      16 calls)

     Called by c_bands:
     init_us_2    :      0.23s CPU      0.24s WALL (      33 calls)
     cegterg      :     23.23s CPU     23.64s WALL (      16 calls)

     Called by sum_band:

     Called by *egterg:
     h_psi        :     11.49s CPU     11.61s WALL (     104 calls)
     g_psi        :      0.05s CPU      0.05s WALL (      87 calls)
     cdiaghg      :      7.71s CPU      7.78s WALL (     103 calls)
     cegterg:over :      1.81s CPU      1.82s WALL (      87 calls)
     cegterg:upda :      1.16s CPU      1.17s WALL (      87 calls)
     cegterg:last :      0.37s CPU      0.37s WALL (      16 calls)

     Called by h_psi:
     h_psi:pot    :     11.30s CPU     11.41s WALL (     104 calls)
     h_psi:calbec :      1.70s CPU      1.72s WALL (     104 calls)
     vloc_psi     :      8.02s CPU      8.11s WALL (     104 calls)
     add_vuspsi   :      1.58s CPU      1.59s WALL (     104 calls)

     General routines
     calbec       :      1.70s CPU      1.72s WALL (     104 calls)
     fft          :      0.66s CPU      0.76s WALL (     354 calls)
     fftw         :      8.58s CPU      8.66s WALL (   19098 calls)
 
     Parallel routines
     fft_scatter  :      5.47s CPU      5.54s WALL (   19452 calls)
 
     PWSCF        :    33.26s CPU        35.39s WALL

 
   This run was terminated on:  22:58:43  10Feb2021            

=------------------------------------------------------------------------------=
   JOB DONE.
=------------------------------------------------------------------------------=
