
     Program PWSCF v.6.1 (svn rev. 13369) starts on 12Feb2021 at 22:33:28 

     This program is part of the open-source Quantum ESPRESSO suite
     for quantum simulation of materials; please cite
         "P. Giannozzi et al., J. Phys.:Condens. Matter 21 395502 (2009);
          URL http://www.quantum-espresso.org", 
     in publications or presentations arising from this work. More details at
     http://www.quantum-espresso.org/quote

     Parallel version (MPI), running on   160 processors
     K-points division:     npool     =       5
     R & G space division:  proc/nbgrp/npool/nimage =      32
     Reading input from scf.in
Warning: card &CELL ignored
Warning: card / ignored
Warning: card &IONS ignored
Warning: card / ignored

     Current dimensions of program PWSCF are:
     Max number of different atomic species (ntypx) = 10
     Max number of k-points (npk) = 120000
     Max angular momentum in pseudopotentials (lmaxx) =  3

     Subspace diagonalization in iterative solution of the eigenvalue problem:
     a serial algorithm will be used

 
     Parallelization info
     --------------------
     sticks:   dense  smooth     PW     G-vecs:    dense   smooth      PW
     Min         383     383    100                36153    36153    4794
     Max         384     384    101                36157    36157    4797
     Sum       12259   12259   3205              1156971  1156971  153445
 


     bravais-lattice index     =            0
     lattice parameter (alat)  =      28.4287  a.u.
     unit-cell volume          =   20997.3881 (a.u.)^3
     number of atoms/cell      =           72
     number of atomic types    =            3
     number of electrons       =       288.00
     number of Kohn-Sham states=          168
     kinetic-energy cutoff     =      55.0000  Ry
     charge density cutoff     =     220.0000  Ry
     convergence threshold     =      1.0E-08
     mixing beta               =       0.7000
     number of iterations used =            8  plain     mixing
     Exchange-correlation      = PBE ( 1  4  3  4 0 0)

     celldm(1)=  28.428666  celldm(2)=   0.000000  celldm(3)=   0.000000
     celldm(4)=   0.000000  celldm(5)=   0.000000  celldm(6)=   0.000000

     crystal axes: (cart. coord. in units of alat)
               a(1) = (   1.000000   0.000000   0.000000 )  
               a(2) = (  -0.499999   0.866026   0.000000 )  
               a(3) = (   0.000000   0.000000   1.055273 )  

     reciprocal axes: (cart. coord. in units 2 pi/alat)
               b(1) = (  1.000000  0.577349  0.000000 )  
               b(2) = (  0.000000  1.154700  0.000000 )  
               b(3) = (  0.000000  0.000000  0.947622 )  


     PseudoPot. # 1 for B  read from file:
     ~/pseudo-ONCV-proj/B_ONCV_PBE-1.0.upf
     MD5 check sum: Not computed, couldn't open file
     Pseudo is Norm-conserving, Zval =  3.0
     Generated using ONCVPSP code by D. R. Hamann
     Using radial grid of 1534 points,  4 beta functions with: 
                l(1) =   0
                l(2) =   0
                l(3) =   1
                l(4) =   1

     PseudoPot. # 2 for N  read from file:
     ~/pseudo-ONCV-proj/N_ONCV_PBE-1.0.upf
     MD5 check sum: Not computed, couldn't open file
     Pseudo is Norm-conserving, Zval =  5.0
     Generated using ONCVPSP code by D. R. Hamann
     Using radial grid of 1058 points,  4 beta functions with: 
                l(1) =   0
                l(2) =   0
                l(3) =   1
                l(4) =   1

     PseudoPot. # 3 for C  read from file:
     ~/pseudo-ONCV-proj/C_ONCV_PBE-1.0.upf
     MD5 check sum: Not computed, couldn't open file
     Pseudo is Norm-conserving, Zval =  4.0
     Generated using ONCVPSP code by D. R. Hamann
     Using radial grid of 1248 points,  4 beta functions with: 
                l(1) =   0
                l(2) =   0
                l(3) =   1
                l(4) =   1

     atomic species   valence    mass     pseudopotential
        B              3.00    10.81100     B ( 1.00)
        N              5.00    14.00674     N ( 1.00)
        C              4.00    12.01070     C ( 1.00)

      2 Sym. Ops. (no inversion) found


                                    s                        frac. trans.

      isym =  1     identity                                     

 cryst.   s( 1) = (     1          0          0      )
                  (     0          1          0      )
                  (     0          0          1      )

 cart.    s( 1) = (  1.0000000 -0.0000000  0.0000000 )
                  (  0.0000000  1.0000000  0.0000000 )
                  (  0.0000000  0.0000000  1.0000000 )


      isym =  2     inv. 180 deg rotation - cart. axis [0,0,1]   

 cryst.   s( 2) = (     1          0          0      )
                  (     0          1          0      )
                  (     0          0         -1      )

 cart.    s( 2) = (  1.0000000 -0.0000000  0.0000000 )
                  (  0.0000000  1.0000000  0.0000000 )
                  (  0.0000000  0.0000000 -1.0000000 )


   Cartesian axes

     site n.     atom                  positions (alat units)
         1           B   tau(   1) = (  -0.0001374   0.0960743   0.5276366  )
         2           B   tau(   2) = (  -0.0832706   0.2406653   0.5276366  )
         3           B   tau(   3) = (  -0.1665461   0.3849030   0.5276366  )
         4           B   tau(   4) = (  -0.2501986   0.5291942   0.5276366  )
         5           B   tau(   5) = (  -0.3332493   0.6735949   0.5276366  )
         6           B   tau(   6) = (  -0.4166074   0.8179757   0.5276366  )
         7           B   tau(   7) = (   0.1666510   0.0960620   0.5276366  )
         8           B   tau(   8) = (   0.0832793   0.2404455   0.5276366  )
         9           B   tau(   9) = (   0.0006447   0.3852722   0.5276366  )
        10           B   tau(  10) = (  -0.0834613   0.5292494   0.5276366  )
        11           B   tau(  11) = (  -0.1668148   0.6736434   0.5276366  )
        12           B   tau(  12) = (  -0.2500120   0.8179058   0.5276366  )
        13           B   tau(  13) = (   0.3334876   0.0959617   0.5276366  )
        14           B   tau(  14) = (   0.2504306   0.2394718   0.5276366  )
        15           B   tau(  15) = (   0.1680132   0.3835188   0.5276366  )
        16           B   tau(  16) = (   0.0828106   0.5310944   0.5276366  )
        17           B   tau(  17) = (  -0.0007287   0.6744936   0.5276366  )
        18           B   tau(  18) = (  -0.0834833   0.8181784   0.5276366  )
        19           B   tau(  19) = (   0.5000741   0.0962676   0.5276366  )
        20           B   tau(  20) = (   0.4165064   0.2409081   0.5276366  )
        21           B   tau(  21) = (   0.3321667   0.3851594   0.5276366  )
        22           B   tau(  22) = (   0.1663083   0.6724353   0.5276366  )
        23           B   tau(  23) = (   0.0835532   0.8176015   0.5276366  )
        24           B   tau(  24) = (   0.6666810   0.0961419   0.5276366  )
        25           B   tau(  25) = (   0.5832688   0.2406164   0.5276366  )
        26           B   tau(  26) = (   0.4996910   0.3850114   0.5276366  )
        27           B   tau(  27) = (   0.4164087   0.5300874   0.5276366  )
        28           B   tau(  28) = (   0.3339405   0.6729269   0.5276366  )
        29           B   tau(  29) = (   0.2499425   0.8175897   0.5276366  )
        30           B   tau(  30) = (   0.8332574   0.0961316   0.5276366  )
        31           B   tau(  31) = (   0.7499675   0.2405436   0.5276366  )
        32           B   tau(  32) = (   0.6665482   0.3848810   0.5276366  )
        33           B   tau(  33) = (   0.5829884   0.5292654   0.5276366  )
        34           B   tau(  34) = (   0.5004862   0.6738558   0.5276366  )
        35           B   tau(  35) = (   0.4165186   0.8176002   0.5276366  )
        36           N   tau(  36) = (   0.0832566   0.0479756   0.5276366  )
        37           N   tau(  37) = (  -0.0001324   0.1921622   0.5276366  )
        38           N   tau(  38) = (  -0.0831249   0.3369078   0.5276366  )
        39           N   tau(  39) = (  -0.1669817   0.4811544   0.5276366  )
        40           N   tau(  40) = (  -0.2501561   0.6254649   0.5276366  )
        41           N   tau(  41) = (  -0.3333835   0.7697712   0.5276366  )
        42           N   tau(  42) = (   0.2500491   0.0480057   0.5276366  )
        43           N   tau(  43) = (   0.1667622   0.1920486   0.5276366  )
        44           N   tau(  44) = (   0.0836652   0.3362562   0.5276366  )
        45           N   tau(  45) = (  -0.0002939   0.4816781   0.5276366  )
        46           N   tau(  46) = (  -0.0836325   0.6257463   0.5276366  )
        47           N   tau(  47) = (  -0.1667336   0.7698965   0.5276366  )
        48           N   tau(  48) = (   0.4167729   0.0481736   0.5276366  )
        49           N   tau(  49) = (   0.3337499   0.1919945   0.5276366  )
        50           N   tau(  50) = (   0.2508819   0.3352819   0.5276366  )
        51           N   tau(  51) = (   0.0824707   0.6269793   0.5276366  )
        52           N   tau(  52) = (  -0.0001855   0.7703890   0.5276366  )
        53           N   tau(  53) = (   0.5834889   0.0479281   0.5276366  )
        54           N   tau(  54) = (   0.4999184   0.1926768   0.5276366  )
        55           N   tau(  55) = (   0.4161399   0.3376469   0.5276366  )
        56           N   tau(  56) = (   0.3315638   0.4833534   0.5276366  )
        57           N   tau(  57) = (   0.2510452   0.6228160   0.5276366  )
        58           N   tau(  58) = (   0.1671480   0.7689146   0.5276366  )
        59           N   tau(  59) = (   0.7499669   0.0477900   0.5276366  )
        60           N   tau(  60) = (   0.6665878   0.1924044   0.5276366  )
        61           N   tau(  61) = (   0.5830380   0.3369201   0.5276366  )
        62           N   tau(  62) = (   0.4991302   0.4813246   0.5276366  )
        63           N   tau(  63) = (   0.4170949   0.6257098   0.5276366  )
        64           N   tau(  64) = (   0.3330716   0.7689472   0.5276366  )
        65           N   tau(  65) = (   0.9164588   0.0477333   0.5276366  )
        66           N   tau(  66) = (   0.8332717   0.1923591   0.5276366  )
        67           N   tau(  67) = (   0.7498907   0.3367796   0.5276366  )
        68           N   tau(  68) = (   0.6662350   0.4811348   0.5276366  )
        69           N   tau(  69) = (   0.5833233   0.6254550   0.5276366  )
        70           N   tau(  70) = (   0.4999886   0.7697954   0.5276366  )
        71           C   tau(  71) = (   0.2499252   0.5291944   0.5276366  )
        72           C   tau(  72) = (   0.1706383   0.4834180   0.5276366  )

   Crystallographic axes

     site n.     atom                  positions (cryst. coord.)
         1           B   tau(   1) = (  0.0553309  0.1109369  0.5000000  )
         2           B   tau(   2) = (  0.0556771  0.2778961  0.5000000  )
         3           B   tau(   3) = (  0.0556771  0.4444474  0.5000000  )
         4           B   tau(   4) = (  0.0553309  0.6110604  0.5000000  )
         5           B   tau(   5) = (  0.0556498  0.7777999  0.5000000  )
         6           B   tau(   6) = (  0.0556498  0.9445163  0.5000000  )
         7           B   tau(   7) = (  0.2221123  0.1109228  0.5000000  )
         8           B   tau(   8) = (  0.2221002  0.2776423  0.5000000  )
         9           B   tau(   9) = (  0.2230811  0.4448737  0.5000000  )
        10           B   tau(  10) = (  0.2221002  0.6111242  0.5000000  )
        11           B   tau(  11) = (  0.2221123  0.7778558  0.5000000  )
        12           B   tau(  12) = (  0.2222049  0.9444356  0.5000000  )
        13           B   tau(  13) = (  0.3888909  0.1108069  0.5000000  )
        14           B   tau(  14) = (  0.3886894  0.2765181  0.5000000  )
        15           B   tau(  15) = (  0.3894372  0.4428490  0.5000000  )
        16           B   tau(  16) = (  0.3894372  0.6132546  0.5000000  )
        17           B   tau(  17) = (  0.3886894  0.7788376  0.5000000  )
        18           B   tau(  18) = (  0.3888909  0.9447503  0.5000000  )
        19           B   tau(  19) = (  0.5556541  0.1111602  0.5000000  )
        20           B   tau(  20) = (  0.5555943  0.2781765  0.5000000  )
        21           B   tau(  21) = (  0.5545380  0.4447435  0.5000000  )
        22           B   tau(  22) = (  0.5545380  0.7764608  0.5000000  )
        23           B   tau(  23) = (  0.5555944  0.9440842  0.5000000  )
        24           B   tau(  24) = (  0.7221884  0.1110150  0.5000000  )
        25           B   tau(  25) = (  0.7221884  0.2778397  0.5000000  )
        26           B   tau(  26) = (  0.7219769  0.4445725  0.5000000  )
        27           B   tau(  27) = (  0.7224540  0.6120918  0.5000000  )
        28           B   tau(  28) = (  0.7224540  0.7770285  0.5000000  )
        29           B   tau(  29) = (  0.7219768  0.9440707  0.5000000  )
        30           B   tau(  30) = (  0.8887588  0.1110031  0.5000000  )
        31           B   tau(  31) = (  0.8888450  0.2777557  0.5000000  )
        32           B   tau(  32) = (  0.8887588  0.4444220  0.5000000  )
        33           B   tau(  33) = (  0.8885590  0.6111426  0.5000000  )
        34           B   tau(  34) = (  0.8895360  0.7781012  0.5000000  )
        35           B   tau(  35) = (  0.8885590  0.9440828  0.5000000  )
        36           N   tau(  36) = (  0.1109552  0.0553974  0.5000000  )
        37           N   tau(  37) = (  0.1108122  0.2218896  0.5000000  )
        38           N   tau(  38) = (  0.1113884  0.3890274  0.5000000  )
        39           N   tau(  39) = (  0.1108122  0.5555889  0.5000000  )
        40           N   tau(  40) = (  0.1109552  0.7222241  0.5000000  )
        41           N   tau(  41) = (  0.1110429  0.8888546  0.5000000  )
        42           N   tau(  42) = (  0.2777652  0.0554322  0.5000000  )
        43           N   tau(  43) = (  0.2776412  0.2217585  0.5000000  )
        44           N   tau(  44) = (  0.2778023  0.3882750  0.5000000  )
        45           N   tau(  45) = (  0.2778023  0.5561936  0.5000000  )
        46           N   tau(  46) = (  0.2776412  0.7225490  0.5000000  )
        47           N   tau(  47) = (  0.2777652  0.8889993  0.5000000  )
        48           N   tau(  48) = (  0.4445859  0.0556261  0.5000000  )
        49           N   tau(  49) = (  0.4445976  0.2216959  0.5000000  )
        50           N   tau(  50) = (  0.4444565  0.3871499  0.5000000  )
        51           N   tau(  51) = (  0.4444565  0.7239729  0.5000000  )
        52           N   tau(  52) = (  0.4445976  0.8895679  0.5000000  )
        53           N   tau(  53) = (  0.6111601  0.0553426  0.5000000  )
        54           N   tau(  54) = (  0.6111601  0.2224839  0.5000000  )
        55           N   tau(  55) = (  0.6110799  0.3898807  0.5000000  )
        56           N   tau(  56) = (  0.6106273  0.5581281  0.5000000  )
        57           N   tau(  57) = (  0.6106272  0.7191654  0.5000000  )
        58           N   tau(  58) = (  0.6110799  0.8878654  0.5000000  )
        59           N   tau(  59) = (  0.7775584  0.0551831  0.5000000  )
        60           N   tau(  60) = (  0.7776722  0.2221693  0.5000000  )
        61           N   tau(  61) = (  0.7775584  0.3890416  0.5000000  )
        62           N   tau(  62) = (  0.7770223  0.5557854  0.5000000  )
        63           N   tau(  63) = (  0.7783477  0.7225070  0.5000000  )
        64           N   tau(  64) = (  0.7770223  0.8879031  0.5000000  )
        65           N   tau(  65) = (  0.9440176  0.0551176  0.5000000  )
        66           N   tau(  66) = (  0.9443299  0.2221170  0.5000000  )
        67           N   tau(  67) = (  0.9443300  0.3888793  0.5000000  )
        68           N   tau(  68) = (  0.9440176  0.5555663  0.5000000  )
        69           N   tau(  69) = (  0.9444290  0.7222127  0.5000000  )
        70           N   tau(  70) = (  0.9444289  0.8888825  0.5000000  )
        71           C   tau(  71) = (  0.5554550  0.6110606  0.5000000  )
        72           C   tau(  72) = (  0.4497390  0.5582027  0.5000000  )

     number of k points=     5
                       cart. coord. in units 2pi/alat
        k(    1) = (   0.0000000   0.0000000   0.0000000), wk =   0.2222222
        k(    2) = (   0.0000000   0.3848999   0.0000000), wk =   0.4444444
        k(    3) = (   0.3333333   0.1924496   0.0000000), wk =   0.4444444
        k(    4) = (   0.3333333   0.5773495   0.0000000), wk =   0.4444444
        k(    5) = (   0.3333333  -0.1924503   0.0000000), wk =   0.4444444

                       cryst. coord.
        k(    1) = (   0.0000000   0.0000000   0.0000000), wk =   0.2222222
        k(    2) = (   0.0000000   0.3333333   0.0000000), wk =   0.4444444
        k(    3) = (   0.3333333  -0.0000000   0.0000000), wk =   0.4444444
        k(    4) = (   0.3333333   0.3333333   0.0000000), wk =   0.4444444
        k(    5) = (   0.3333333  -0.3333333   0.0000000), wk =   0.4444444

     Dense  grid:  1156971 G-vectors     FFT dimensions: ( 135, 135, 144)

     Estimated max dynamical RAM per process >     134.74MB

     Estimated total allocated dynamical RAM >   21558.30MB

     Initial potential from superposition of free atoms
     Check: negative starting charge=   -0.002892

     starting charge  287.99093, renormalised to  288.00000

     negative rho (up, down):  2.892E-03 0.000E+00
     Starting wfc are  288 randomized atomic wfcs

     total cpu time spent up to now is        4.3 secs

     per-process dynamical memory:   117.6 Mb

     Self-consistent Calculation

     iteration #  1     ecut=    55.00 Ry     beta=0.70
     Davidson diagonalization with overlap
     ethr =  1.00E-02,  avg # of iterations =  2.0

     negative rho (up, down):  3.494E-04 0.000E+00

     total cpu time spent up to now is        7.0 secs

     total energy              =    -919.08585485 Ry
     Harris-Foulkes estimate   =    -928.52050916 Ry
     estimated scf accuracy    <      14.19709491 Ry

     iteration #  2     ecut=    55.00 Ry     beta=0.70
     Davidson diagonalization with overlap
     ethr =  4.93E-03,  avg # of iterations =  3.0

     negative rho (up, down):  1.441E-04 0.000E+00

     total cpu time spent up to now is        9.8 secs

     total energy              =    -922.35553976 Ry
     Harris-Foulkes estimate   =    -926.11261432 Ry
     estimated scf accuracy    <       7.33845601 Ry

     iteration #  3     ecut=    55.00 Ry     beta=0.70
     Davidson diagonalization with overlap
     ethr =  2.55E-03,  avg # of iterations =  2.0

     negative rho (up, down):  1.335E-05 0.000E+00

     total cpu time spent up to now is       12.3 secs

     total energy              =    -923.80437607 Ry
     Harris-Foulkes estimate   =    -923.95720645 Ry
     estimated scf accuracy    <       0.25757433 Ry

     iteration #  4     ecut=    55.00 Ry     beta=0.70
     Davidson diagonalization with overlap
     ethr =  8.94E-05,  avg # of iterations = 18.2

     negative rho (up, down):  7.996E-08 0.000E+00

     total cpu time spent up to now is       19.7 secs

     total energy              =    -923.88117849 Ry
     Harris-Foulkes estimate   =    -924.01429455 Ry
     estimated scf accuracy    <       0.33104740 Ry

     iteration #  5     ecut=    55.00 Ry     beta=0.70
     Davidson diagonalization with overlap
     ethr =  8.94E-05,  avg # of iterations =  5.6

     negative rho (up, down):  4.830E-08 0.000E+00

     total cpu time spent up to now is       23.3 secs

     total energy              =    -923.93694299 Ry
     Harris-Foulkes estimate   =    -923.94166693 Ry
     estimated scf accuracy    <       0.01057220 Ry

     iteration #  6     ecut=    55.00 Ry     beta=0.70
     Davidson diagonalization with overlap
     ethr =  3.67E-06,  avg # of iterations =  9.8

     total cpu time spent up to now is       28.3 secs

     total energy              =    -923.93907250 Ry
     Harris-Foulkes estimate   =    -923.93960272 Ry
     estimated scf accuracy    <       0.00146005 Ry

     iteration #  7     ecut=    55.00 Ry     beta=0.70
     Davidson diagonalization with overlap
     ethr =  5.07E-07,  avg # of iterations =  3.0

     total cpu time spent up to now is       31.1 secs

     total energy              =    -923.93937931 Ry
     Harris-Foulkes estimate   =    -923.93961686 Ry
     estimated scf accuracy    <       0.00057564 Ry

     iteration #  8     ecut=    55.00 Ry     beta=0.70
     Davidson diagonalization with overlap
     ethr =  2.00E-07,  avg # of iterations =  2.0

     total cpu time spent up to now is       33.5 secs

     total energy              =    -923.93941543 Ry
     Harris-Foulkes estimate   =    -923.93944871 Ry
     estimated scf accuracy    <       0.00007910 Ry

     iteration #  9     ecut=    55.00 Ry     beta=0.70
     Davidson diagonalization with overlap
     ethr =  2.75E-08,  avg # of iterations =  3.0

     total cpu time spent up to now is       36.2 secs

     total energy              =    -923.93943304 Ry
     Harris-Foulkes estimate   =    -923.93943401 Ry
     estimated scf accuracy    <       0.00000220 Ry

     iteration # 10     ecut=    55.00 Ry     beta=0.70
     Davidson diagonalization with overlap
     ethr =  7.64E-10,  avg # of iterations =  3.0

     total cpu time spent up to now is       42.9 secs

     total energy              =    -923.93943397 Ry
     Harris-Foulkes estimate   =    -923.93943403 Ry
     estimated scf accuracy    <       0.00000036 Ry

     iteration # 11     ecut=    55.00 Ry     beta=0.70
     Davidson diagonalization with overlap
     ethr =  1.26E-10,  avg # of iterations =  2.2

     total cpu time spent up to now is       45.4 secs

     total energy              =    -923.93943402 Ry
     Harris-Foulkes estimate   =    -923.93943404 Ry
     estimated scf accuracy    <       0.00000004 Ry

     iteration # 12     ecut=    55.00 Ry     beta=0.70
     Davidson diagonalization with overlap
     ethr =  1.37E-11,  avg # of iterations =  3.0

     total cpu time spent up to now is       48.2 secs

     total energy              =    -923.93943403 Ry
     Harris-Foulkes estimate   =    -923.93943404 Ry
     estimated scf accuracy    <       0.00000001 Ry

     iteration # 13     ecut=    55.00 Ry     beta=0.70
     Davidson diagonalization with overlap
     ethr =  4.16E-12,  avg # of iterations =  3.0

     total cpu time spent up to now is       50.6 secs

     End of self-consistent calculation

          k = 0.0000 0.0000 0.0000 (144701 PWs)   bands (ev):

   -21.9550 -21.1681 -20.8376 -20.7967 -20.7470 -20.7262 -20.6124 -20.1237
   -19.9532 -19.8061 -19.7931 -19.7551 -19.6558 -19.4850 -19.4657 -19.3623
   -19.3361 -19.3223 -19.0885 -18.7345 -18.5121 -18.4086 -18.3603 -18.3327
   -18.3326 -18.3023 -18.2967 -18.2771 -18.2690 -18.2595 -18.2223 -18.1533
   -18.1327 -17.7360 -17.6508 -15.6254 -13.1744 -12.5400 -12.5304 -12.2249
   -12.0337 -11.7849 -11.7774 -11.7391 -11.7387 -11.7037 -11.6876 -11.6861
   -11.6613 -11.6013 -11.5851 -11.5559 -11.5004 -11.0059 -10.7796 -10.6735
   -10.6100 -10.5670 -10.5002 -10.4389 -10.3956  -9.6409  -9.4454  -9.2210
    -9.2112  -9.1729  -9.1685  -9.1284  -9.1212  -9.0343  -9.0240  -9.0111
    -8.9894  -8.9826  -8.9721  -8.9572  -8.9495  -8.9003  -8.7960  -8.6043
    -8.4891  -8.2109  -8.1944  -8.1508  -8.1260  -8.0500  -8.0099  -7.8504
    -7.8252  -7.7157  -7.6837  -7.6344  -7.6248  -7.5293  -7.5037  -7.3789
    -7.3177  -7.3072  -7.2507  -7.2296  -7.1269  -7.1029  -7.0176  -7.0080
    -6.9959  -6.9538  -6.8816  -6.8414  -6.8343  -6.8292  -6.7929  -6.6953
    -6.4752  -6.3697  -6.2661  -6.2329  -6.2114  -6.1879  -6.0289  -6.0018
    -5.9417  -5.8982  -5.8940  -5.8410  -5.3843  -4.9983  -4.9682  -4.9475
    -4.7773  -4.7570  -4.7328  -4.7192  -4.7014  -4.6887  -4.6672  -4.6598
    -4.6398  -4.5878  -4.5786  -4.5292  -4.4793  -3.9611  -3.6587  -3.1642
     0.3889   1.0502   1.0891   1.1198   1.1785   1.1967   1.4743   1.7287
     1.8005   1.8048   1.8203   1.8388   1.8714   1.8854   1.9018   1.9030
     1.9315   1.9421   1.9587   1.9871   1.9949   2.0011   2.0687   2.0823

     occupation numbers 
     1.0000   1.0000   1.0000   1.0000   1.0000   1.0000   1.0000   1.0000
     1.0000   1.0000   1.0000   1.0000   1.0000   1.0000   1.0000   1.0000
     1.0000   1.0000   1.0000   1.0000   1.0000   1.0000   1.0000   1.0000
     1.0000   1.0000   1.0000   1.0000   1.0000   1.0000   1.0000   1.0000
     1.0000   1.0000   1.0000   1.0000   1.0000   1.0000   1.0000   1.0000
     1.0000   1.0000   1.0000   1.0000   1.0000   1.0000   1.0000   1.0000
     1.0000   1.0000   1.0000   1.0000   1.0000   1.0000   1.0000   1.0000
     1.0000   1.0000   1.0000   1.0000   1.0000   1.0000   1.0000   1.0000
     1.0000   1.0000   1.0000   1.0000   1.0000   1.0000   1.0000   1.0000
     1.0000   1.0000   1.0000   1.0000   1.0000   1.0000   1.0000   1.0000
     1.0000   1.0000   1.0000   1.0000   1.0000   1.0000   1.0000   1.0000
     1.0000   1.0000   1.0000   1.0000   1.0000   1.0000   1.0000   1.0000
     1.0000   1.0000   1.0000   1.0000   1.0000   1.0000   1.0000   1.0000
     1.0000   1.0000   1.0000   1.0000   1.0000   1.0000   1.0000   1.0000
     1.0000   1.0000   1.0000   1.0000   1.0000   1.0000   1.0000   1.0000
     1.0000   1.0000   1.0000   1.0000   1.0000   1.0000   1.0000   1.0000
     1.0000   1.0000   1.0000   1.0000   1.0000   1.0000   1.0000   1.0000
     1.0000   1.0000   1.0000   1.0000   1.0000   1.0000   1.0000   1.0000
     0.0000   0.0000   0.0000   0.0000   0.0000   0.0000   0.0000   0.0000
     0.0000   0.0000   0.0000   0.0000   0.0000   0.0000   0.0000   0.0000
     0.0000   0.0000   0.0000   0.0000   0.0000   0.0000   0.0000   0.0000

          k = 0.0000 0.3849 0.0000 (144706 PWs)   bands (ev):

   -21.9538 -21.1583 -20.9844 -20.8335 -20.7015 -20.5198 -20.4037 -20.3232
   -20.1645 -19.9574 -19.8391 -19.6980 -19.6254 -19.5451 -19.4200 -19.2533
   -19.1026 -19.0638 -18.9308 -18.8367 -18.7622 -18.7056 -18.5781 -18.4593
   -18.4232 -18.3327 -18.2911 -18.2438 -18.1916 -18.1635 -18.0685 -17.9787
   -17.9385 -17.7881 -17.7279 -15.6238 -13.1557 -12.4354 -12.3891 -12.2831
   -12.1774 -12.1319 -12.1042 -11.8882 -11.8439 -11.7560 -11.6996 -11.5614
   -11.5180 -11.4431 -11.3665 -11.3048 -11.1075 -11.0425 -11.0078 -10.9140
   -10.5992 -10.4257 -10.2489 -10.0837  -9.9995  -9.9487  -9.8965  -9.7434
    -9.5622  -9.5311  -9.4276  -9.3772  -9.3312  -9.1685  -9.0883  -8.9193
    -8.8320  -8.6699  -8.6311  -8.5988  -8.4713  -8.4062  -8.3734  -8.3604
    -8.3181  -8.2727  -8.2584  -8.2166  -8.1470  -8.0986  -8.0015  -7.9765
    -7.9312  -7.8266  -7.7792  -7.7052  -7.6422  -7.6320  -7.6094  -7.5637
    -7.5139  -7.4869  -7.4498  -7.3639  -7.3628  -7.2699  -7.0779  -7.0112
    -6.9289  -6.8666  -6.8326  -6.7566  -6.7179  -6.5964  -6.5682  -6.4905
    -6.4775  -6.3795  -6.2741  -6.2286  -6.1896  -6.0967  -5.9378  -5.8421
    -5.8043  -5.7307  -5.5564  -5.5225  -5.4577  -5.3870  -5.3763  -5.2857
    -5.1667  -5.1451  -4.8558  -4.8132  -4.7313  -4.6757  -4.6704  -4.6086
    -4.5577  -4.4394  -4.3093  -4.2164  -4.1591  -3.9475  -3.8026  -3.2044
     0.3998   1.1410   1.1902   1.1998   1.2605   1.2748   1.3232   1.3977
     1.4737   1.4907   1.5080   1.5650   1.5927   1.7763   1.8126   1.9834
     2.0857   2.1464   2.2925   2.3508   2.3702   2.3825   2.3994   2.4359

     occupation numbers 
     1.0000   1.0000   1.0000   1.0000   1.0000   1.0000   1.0000   1.0000
     1.0000   1.0000   1.0000   1.0000   1.0000   1.0000   1.0000   1.0000
     1.0000   1.0000   1.0000   1.0000   1.0000   1.0000   1.0000   1.0000
     1.0000   1.0000   1.0000   1.0000   1.0000   1.0000   1.0000   1.0000
     1.0000   1.0000   1.0000   1.0000   1.0000   1.0000   1.0000   1.0000
     1.0000   1.0000   1.0000   1.0000   1.0000   1.0000   1.0000   1.0000
     1.0000   1.0000   1.0000   1.0000   1.0000   1.0000   1.0000   1.0000
     1.0000   1.0000   1.0000   1.0000   1.0000   1.0000   1.0000   1.0000
     1.0000   1.0000   1.0000   1.0000   1.0000   1.0000   1.0000   1.0000
     1.0000   1.0000   1.0000   1.0000   1.0000   1.0000   1.0000   1.0000
     1.0000   1.0000   1.0000   1.0000   1.0000   1.0000   1.0000   1.0000
     1.0000   1.0000   1.0000   1.0000   1.0000   1.0000   1.0000   1.0000
     1.0000   1.0000   1.0000   1.0000   1.0000   1.0000   1.0000   1.0000
     1.0000   1.0000   1.0000   1.0000   1.0000   1.0000   1.0000   1.0000
     1.0000   1.0000   1.0000   1.0000   1.0000   1.0000   1.0000   1.0000
     1.0000   1.0000   1.0000   1.0000   1.0000   1.0000   1.0000   1.0000
     1.0000   1.0000   1.0000   1.0000   1.0000   1.0000   1.0000   1.0000
     1.0000   1.0000   1.0000   1.0000   1.0000   1.0000   1.0000   1.0000
     0.0000   0.0000   0.0000   0.0000   0.0000   0.0000   0.0000   0.0000
     0.0000   0.0000   0.0000   0.0000   0.0000   0.0000   0.0000   0.0000
     0.0000   0.0000   0.0000   0.0000   0.0000   0.0000   0.0000   0.0000

          k = 0.3333 0.1924 0.0000 (144706 PWs)   bands (ev):

   -21.9541 -21.1378 -20.9823 -20.9054 -20.6467 -20.5507 -20.4074 -20.2288
   -20.1759 -19.9571 -19.8655 -19.7780 -19.6049 -19.6042 -19.3137 -19.2622
   -19.1144 -19.0806 -18.8462 -18.8427 -18.7396 -18.7333 -18.5876 -18.5282
   -18.4019 -18.3648 -18.3036 -18.2329 -18.1543 -18.1543 -18.0462 -17.9808
   -17.9728 -17.7868 -17.7221 -15.6229 -13.1536 -12.4578 -12.3181 -12.2342
   -12.2297 -12.1419 -12.1043 -11.9353 -11.9015 -11.7619 -11.6923 -11.5603
   -11.4947 -11.4750 -11.3320 -11.2864 -11.0830 -11.0676 -10.9870 -10.9030
   -10.5972 -10.4287 -10.1895 -10.0827  -9.9902  -9.9793  -9.8695  -9.7463
    -9.5845  -9.5229  -9.4695  -9.4329  -9.3496  -9.1537  -9.1484  -8.9250
    -8.7805  -8.7325  -8.6033  -8.4959  -8.4702  -8.4004  -8.3816  -8.3307
    -8.3279  -8.2581  -8.2536  -8.2109  -8.1305  -8.1033  -7.9882  -7.9689
    -7.9270  -7.8609  -7.8578  -7.6776  -7.6588  -7.6586  -7.6016  -7.5778
    -7.4990  -7.4089  -7.3962  -7.3933  -7.3766  -7.1917  -7.1857  -7.0112
    -6.9248  -6.9226  -6.8248  -6.7998  -6.7872  -6.5655  -6.5639  -6.5443
    -6.5282  -6.3565  -6.2427  -6.1451  -6.1275  -5.9755  -5.8961  -5.8208
    -5.7941  -5.7721  -5.7317  -5.5033  -5.4162  -5.3626  -5.3528  -5.2822
    -5.2450  -5.1823  -4.8691  -4.8364  -4.7452  -4.6633  -4.6229  -4.5933
    -4.5272  -4.4994  -4.2668  -4.2188  -4.1857  -3.9480  -3.7969  -3.1963
     0.3931   1.1406   1.1887   1.2055   1.2754   1.2852   1.3034   1.4104
     1.4360   1.4952   1.5098   1.5603   1.5963   1.7791   1.8046   2.0255
     2.0983   2.1478   2.2805   2.3583   2.3669   2.3797   2.4009   2.4371

     occupation numbers 
     1.0000   1.0000   1.0000   1.0000   1.0000   1.0000   1.0000   1.0000
     1.0000   1.0000   1.0000   1.0000   1.0000   1.0000   1.0000   1.0000
     1.0000   1.0000   1.0000   1.0000   1.0000   1.0000   1.0000   1.0000
     1.0000   1.0000   1.0000   1.0000   1.0000   1.0000   1.0000   1.0000
     1.0000   1.0000   1.0000   1.0000   1.0000   1.0000   1.0000   1.0000
     1.0000   1.0000   1.0000   1.0000   1.0000   1.0000   1.0000   1.0000
     1.0000   1.0000   1.0000   1.0000   1.0000   1.0000   1.0000   1.0000
     1.0000   1.0000   1.0000   1.0000   1.0000   1.0000   1.0000   1.0000
     1.0000   1.0000   1.0000   1.0000   1.0000   1.0000   1.0000   1.0000
     1.0000   1.0000   1.0000   1.0000   1.0000   1.0000   1.0000   1.0000
     1.0000   1.0000   1.0000   1.0000   1.0000   1.0000   1.0000   1.0000
     1.0000   1.0000   1.0000   1.0000   1.0000   1.0000   1.0000   1.0000
     1.0000   1.0000   1.0000   1.0000   1.0000   1.0000   1.0000   1.0000
     1.0000   1.0000   1.0000   1.0000   1.0000   1.0000   1.0000   1.0000
     1.0000   1.0000   1.0000   1.0000   1.0000   1.0000   1.0000   1.0000
     1.0000   1.0000   1.0000   1.0000   1.0000   1.0000   1.0000   1.0000
     1.0000   1.0000   1.0000   1.0000   1.0000   1.0000   1.0000   1.0000
     1.0000   1.0000   1.0000   1.0000   1.0000   1.0000   1.0000   1.0000
     0.0000   0.0000   0.0000   0.0000   0.0000   0.0000   0.0000   0.0000
     0.0000   0.0000   0.0000   0.0000   0.0000   0.0000   0.0000   0.0000
     0.0000   0.0000   0.0000   0.0000   0.0000   0.0000   0.0000   0.0000

          k = 0.3333 0.5773 0.0000 (144630 PWs)   bands (ev):

   -21.9533 -21.1190 -21.0727 -20.8328 -20.6229 -20.5445 -20.3434 -20.2044
   -20.1207 -20.0866 -20.0605 -19.9148 -19.4414 -19.4032 -19.2354 -19.1995
   -19.1768 -19.1027 -18.8771 -18.8659 -18.7610 -18.6663 -18.6227 -18.5566
   -18.5195 -18.5051 -18.3626 -18.1704 -18.1280 -18.0466 -17.9839 -17.9554
   -17.9003 -17.8316 -17.7786 -15.6223 -13.1530 -12.4305 -12.3929 -12.2283
   -12.1279 -12.0196 -11.9766 -11.9584 -11.9254 -11.8819 -11.8549 -11.8040
   -11.6302 -11.5712 -11.5425 -10.9056 -10.8433 -10.7256 -10.6092 -10.5669
   -10.5347 -10.4887 -10.4507 -10.4091 -10.2214 -10.1515 -10.0893  -9.9239
    -9.8742  -9.7836  -9.1833  -9.0450  -8.9487  -8.9144  -8.8827  -8.8186
    -8.7907  -8.7672  -8.7414  -8.6825  -8.6399  -8.5784  -8.5597  -8.4754
    -8.4095  -8.1860  -8.0983  -8.0019  -7.9557  -7.9417  -7.9338  -7.9160
    -7.8985  -7.8806  -7.8775  -7.8555  -7.8475  -7.7857  -7.7275  -7.5720
    -7.4813  -7.4114  -7.3213  -7.3122  -7.2786  -7.2478  -7.2153  -7.2107
    -7.0886  -6.9334  -6.8434  -6.8041  -6.7785  -6.7200  -6.5337  -6.3779
    -6.3045  -6.2359  -6.0936  -6.0899  -6.0393  -6.0095  -5.9735  -5.8806
    -5.7951  -5.6909  -5.5449  -5.5213  -5.4704  -5.4080  -5.3927  -5.3393
    -5.1642  -5.1248  -5.0602  -5.0349  -5.0183  -4.8318  -4.6932  -4.4219
    -4.4162  -4.3028  -4.1884  -4.1588  -4.0863  -3.9641  -3.9218  -3.2136
     0.3895   1.1332   1.1792   1.2005   1.2172   1.2642   1.3551   1.3787
     1.4272   1.4525   1.5117   1.5515   1.7899   1.8614   1.9011   1.9386
     1.9978   2.0011   2.2649   2.2688   2.3072   2.3220   2.3745   2.7321

     occupation numbers 
     1.0000   1.0000   1.0000   1.0000   1.0000   1.0000   1.0000   1.0000
     1.0000   1.0000   1.0000   1.0000   1.0000   1.0000   1.0000   1.0000
     1.0000   1.0000   1.0000   1.0000   1.0000   1.0000   1.0000   1.0000
     1.0000   1.0000   1.0000   1.0000   1.0000   1.0000   1.0000   1.0000
     1.0000   1.0000   1.0000   1.0000   1.0000   1.0000   1.0000   1.0000
     1.0000   1.0000   1.0000   1.0000   1.0000   1.0000   1.0000   1.0000
     1.0000   1.0000   1.0000   1.0000   1.0000   1.0000   1.0000   1.0000
     1.0000   1.0000   1.0000   1.0000   1.0000   1.0000   1.0000   1.0000
     1.0000   1.0000   1.0000   1.0000   1.0000   1.0000   1.0000   1.0000
     1.0000   1.0000   1.0000   1.0000   1.0000   1.0000   1.0000   1.0000
     1.0000   1.0000   1.0000   1.0000   1.0000   1.0000   1.0000   1.0000
     1.0000   1.0000   1.0000   1.0000   1.0000   1.0000   1.0000   1.0000
     1.0000   1.0000   1.0000   1.0000   1.0000   1.0000   1.0000   1.0000
     1.0000   1.0000   1.0000   1.0000   1.0000   1.0000   1.0000   1.0000
     1.0000   1.0000   1.0000   1.0000   1.0000   1.0000   1.0000   1.0000
     1.0000   1.0000   1.0000   1.0000   1.0000   1.0000   1.0000   1.0000
     1.0000   1.0000   1.0000   1.0000   1.0000   1.0000   1.0000   1.0000
     1.0000   1.0000   1.0000   1.0000   1.0000   1.0000   1.0000   1.0000
     0.0000   0.0000   0.0000   0.0000   0.0000   0.0000   0.0000   0.0000
     0.0000   0.0000   0.0000   0.0000   0.0000   0.0000   0.0000   0.0000
     0.0000   0.0000   0.0000   0.0000   0.0000   0.0000   0.0000   0.0000

          k = 0.3333-0.1925 0.0000 (144706 PWs)   bands (ev):

   -21.9538 -21.1583 -20.9844 -20.8335 -20.7015 -20.5198 -20.4037 -20.3232
   -20.1645 -19.9574 -19.8391 -19.6980 -19.6254 -19.5451 -19.4200 -19.2533
   -19.1026 -19.0638 -18.9308 -18.8367 -18.7622 -18.7056 -18.5781 -18.4593
   -18.4232 -18.3327 -18.2911 -18.2438 -18.1916 -18.1635 -18.0685 -17.9787
   -17.9385 -17.7881 -17.7279 -15.6238 -13.1557 -12.4354 -12.3891 -12.2831
   -12.1774 -12.1319 -12.1042 -11.8882 -11.8439 -11.7560 -11.6996 -11.5614
   -11.5180 -11.4431 -11.3665 -11.3048 -11.1075 -11.0425 -11.0078 -10.9140
   -10.5992 -10.4257 -10.2489 -10.0837  -9.9995  -9.9487  -9.8965  -9.7434
    -9.5622  -9.5311  -9.4276  -9.3772  -9.3312  -9.1686  -9.0883  -8.9193
    -8.8320  -8.6699  -8.6311  -8.5988  -8.4713  -8.4062  -8.3734  -8.3604
    -8.3181  -8.2727  -8.2584  -8.2166  -8.1470  -8.0986  -8.0015  -7.9765
    -7.9312  -7.8266  -7.7792  -7.7052  -7.6422  -7.6320  -7.6094  -7.5637
    -7.5139  -7.4869  -7.4498  -7.3639  -7.3627  -7.2699  -7.0779  -7.0112
    -6.9289  -6.8666  -6.8326  -6.7566  -6.7179  -6.5964  -6.5682  -6.4905
    -6.4775  -6.3795  -6.2741  -6.2286  -6.1896  -6.0967  -5.9378  -5.8421
    -5.8043  -5.7307  -5.5564  -5.5225  -5.4577  -5.3870  -5.3763  -5.2857
    -5.1667  -5.1451  -4.8558  -4.8132  -4.7313  -4.6757  -4.6704  -4.6086
    -4.5577  -4.4394  -4.3093  -4.2164  -4.1591  -3.9475  -3.8026  -3.2044
     0.3998   1.1410   1.1902   1.1998   1.2605   1.2748   1.3232   1.3977
     1.4737   1.4907   1.5080   1.5650   1.5927   1.7763   1.8126   1.9834
     2.0857   2.1464   2.2925   2.3508   2.3702   2.3825   2.3994   2.4359

     occupation numbers 
     1.0000   1.0000   1.0000   1.0000   1.0000   1.0000   1.0000   1.0000
     1.0000   1.0000   1.0000   1.0000   1.0000   1.0000   1.0000   1.0000
     1.0000   1.0000   1.0000   1.0000   1.0000   1.0000   1.0000   1.0000
     1.0000   1.0000   1.0000   1.0000   1.0000   1.0000   1.0000   1.0000
     1.0000   1.0000   1.0000   1.0000   1.0000   1.0000   1.0000   1.0000
     1.0000   1.0000   1.0000   1.0000   1.0000   1.0000   1.0000   1.0000
     1.0000   1.0000   1.0000   1.0000   1.0000   1.0000   1.0000   1.0000
     1.0000   1.0000   1.0000   1.0000   1.0000   1.0000   1.0000   1.0000
     1.0000   1.0000   1.0000   1.0000   1.0000   1.0000   1.0000   1.0000
     1.0000   1.0000   1.0000   1.0000   1.0000   1.0000   1.0000   1.0000
     1.0000   1.0000   1.0000   1.0000   1.0000   1.0000   1.0000   1.0000
     1.0000   1.0000   1.0000   1.0000   1.0000   1.0000   1.0000   1.0000
     1.0000   1.0000   1.0000   1.0000   1.0000   1.0000   1.0000   1.0000
     1.0000   1.0000   1.0000   1.0000   1.0000   1.0000   1.0000   1.0000
     1.0000   1.0000   1.0000   1.0000   1.0000   1.0000   1.0000   1.0000
     1.0000   1.0000   1.0000   1.0000   1.0000   1.0000   1.0000   1.0000
     1.0000   1.0000   1.0000   1.0000   1.0000   1.0000   1.0000   1.0000
     1.0000   1.0000   1.0000   1.0000   1.0000   1.0000   1.0000   1.0000
     0.0000   0.0000   0.0000   0.0000   0.0000   0.0000   0.0000   0.0000
     0.0000   0.0000   0.0000   0.0000   0.0000   0.0000   0.0000   0.0000
     0.0000   0.0000   0.0000   0.0000   0.0000   0.0000   0.0000   0.0000

     highest occupied, lowest unoccupied level (ev):    -3.1642    0.3889

!    total energy              =    -923.93943403 Ry
     Harris-Foulkes estimate   =    -923.93943403 Ry
     estimated scf accuracy    <          4.0E-10 Ry

     The total energy is the sum of the following terms:

     one-electron contribution =   -6004.63476893 Ry
     hartree contribution      =    3060.52577214 Ry
     xc contribution           =    -264.87985467 Ry
     ewald contribution        =    2285.04941742 Ry

     convergence has been achieved in  13 iterations

     Writing output data file BN.save
 
     init_run     :      3.43s CPU      3.93s WALL (       1 calls)
     electrons    :     45.64s CPU     46.47s WALL (       1 calls)

     Called by init_run:
     wfcinit      :      1.07s CPU      1.44s WALL (       1 calls)
     wfcinit:atom :      0.01s CPU      0.02s WALL (       1 calls)
     wfcinit:wfcr :      1.00s CPU      1.36s WALL (       1 calls)
     potinit      :      0.73s CPU      0.76s WALL (       1 calls)

     Called by electrons:
     c_bands      :     40.98s CPU     41.67s WALL (      13 calls)
     sum_band     :      3.47s CPU      3.51s WALL (      13 calls)
     v_of_rho     :      0.74s CPU      0.76s WALL (      14 calls)
     v_h          :      0.07s CPU      0.07s WALL (      14 calls)
     v_xc         :      0.67s CPU      0.68s WALL (      14 calls)
     mix_rho      :      0.23s CPU      0.24s WALL (      13 calls)

     Called by c_bands:
     init_us_2    :      0.48s CPU      0.50s WALL (      27 calls)
     cegterg      :     31.28s CPU     31.93s WALL (      13 calls)

     Called by sum_band:

     Called by *egterg:
     h_psi        :     19.16s CPU     19.34s WALL (      69 calls)
     g_psi        :      0.11s CPU      0.11s WALL (      55 calls)
     cdiaghg      :      5.75s CPU      6.13s WALL (      68 calls)
     cegterg:over :      2.79s CPU      2.80s WALL (      55 calls)
     cegterg:upda :      2.12s CPU      2.13s WALL (      55 calls)
     cegterg:last :      0.74s CPU      0.75s WALL (      13 calls)

     Called by h_psi:
     h_psi:pot    :     18.70s CPU     18.88s WALL (      69 calls)
     h_psi:calbec :      2.89s CPU      2.92s WALL (      69 calls)
     vloc_psi     :     12.77s CPU     12.90s WALL (      69 calls)
     add_vuspsi   :      3.04s CPU      3.06s WALL (      69 calls)

     General routines
     calbec       :      2.88s CPU      2.92s WALL (      69 calls)
     fft          :      0.60s CPU      0.64s WALL (     153 calls)
     fftw         :     12.55s CPU     12.67s WALL (   15218 calls)
 
     Parallel routines
     fft_scatter  :      5.03s CPU      5.10s WALL (   15371 calls)
 
     PWSCF        :    54.59s CPU        58.36s WALL

 
   This run was terminated on:  22:34:27  12Feb2021            

=------------------------------------------------------------------------------=
   JOB DONE.
=------------------------------------------------------------------------------=
