
     Program PWSCF v.6.1 (svn rev. 13369) starts on 10Feb2021 at 22:50:49 

     This program is part of the open-source Quantum ESPRESSO suite
     for quantum simulation of materials; please cite
         "P. Giannozzi et al., J. Phys.:Condens. Matter 21 395502 (2009);
          URL http://www.quantum-espresso.org", 
     in publications or presentations arising from this work. More details at
     http://www.quantum-espresso.org/quote

     Parallel version (MPI), running on   160 processors
     K-points division:     npool     =       2
     R & G space division:  proc/nbgrp/npool/nimage =      80
     Reading input from scf.in
Warning: card &CELL ignored
Warning: card / ignored
Warning: card &IONS ignored
Warning: card / ignored

     Current dimensions of program PWSCF are:
     Max number of different atomic species (ntypx) = 10
     Max number of k-points (npk) = 120000
     Max angular momentum in pseudopotentials (lmaxx) =  3

     Subspace diagonalization in iterative solution of the eigenvalue problem:
     a serial algorithm will be used

 
     Parallelization info
     --------------------
     sticks:   dense  smooth     PW     G-vecs:    dense   smooth      PW
     Min         153     153     38                14461    14461    1806
     Max         154     154     39                14464    14464    1813
     Sum       12259   12259   3067              1156971  1156971  144701
 


     bravais-lattice index     =            0
     lattice parameter (alat)  =      28.4287  a.u.
     unit-cell volume          =   20997.3881 (a.u.)^3
     number of atoms/cell      =           72
     number of atomic types    =            3
     number of electrons       =       288.00 (up: 144.00, down: 144.00)
     number of Kohn-Sham states=          168
     kinetic-energy cutoff     =      55.0000  Ry
     charge density cutoff     =     220.0000  Ry
     convergence threshold     =      1.0E-08
     mixing beta               =       0.7000
     number of iterations used =            8  plain     mixing
     Exchange-correlation      = PBE ( 1  4  3  4 0 0)

     celldm(1)=  28.428666  celldm(2)=   0.000000  celldm(3)=   0.000000
     celldm(4)=   0.000000  celldm(5)=   0.000000  celldm(6)=   0.000000

     crystal axes: (cart. coord. in units of alat)
               a(1) = (   1.000000   0.000000   0.000000 )  
               a(2) = (  -0.499999   0.866026   0.000000 )  
               a(3) = (   0.000000   0.000000   1.055273 )  

     reciprocal axes: (cart. coord. in units 2 pi/alat)
               b(1) = (  1.000000  0.577349  0.000000 )  
               b(2) = (  0.000000  1.154700  0.000000 )  
               b(3) = (  0.000000  0.000000  0.947622 )  


     PseudoPot. # 1 for B  read from file:
     ~/pseudo-ONCV-proj/B_ONCV_PBE-1.0.upf
     MD5 check sum: Not computed, couldn't open file
     Pseudo is Norm-conserving, Zval =  3.0
     Generated using ONCVPSP code by D. R. Hamann
     Using radial grid of 1534 points,  4 beta functions with: 
                l(1) =   0
                l(2) =   0
                l(3) =   1
                l(4) =   1

     PseudoPot. # 2 for N  read from file:
     ~/pseudo-ONCV-proj/N_ONCV_PBE-1.0.upf
     MD5 check sum: Not computed, couldn't open file
     Pseudo is Norm-conserving, Zval =  5.0
     Generated using ONCVPSP code by D. R. Hamann
     Using radial grid of 1058 points,  4 beta functions with: 
                l(1) =   0
                l(2) =   0
                l(3) =   1
                l(4) =   1

     PseudoPot. # 3 for C  read from file:
     ~/pseudo-ONCV-proj/C_ONCV_PBE-1.0.upf
     MD5 check sum: Not computed, couldn't open file
     Pseudo is Norm-conserving, Zval =  4.0
     Generated using ONCVPSP code by D. R. Hamann
     Using radial grid of 1248 points,  4 beta functions with: 
                l(1) =   0
                l(2) =   0
                l(3) =   1
                l(4) =   1

     atomic species   valence    mass     pseudopotential
        B              3.00    10.81100     B ( 1.00)
        N              5.00    14.00674     N ( 1.00)
        C              4.00    12.01070     C ( 1.00)

     Starting magnetic structure 
     atomic species   magnetization
        B            1.000
        N            0.000
        C            0.000

      2 Sym. Ops. (no inversion) found


                                    s                        frac. trans.

      isym =  1     identity                                     

 cryst.   s( 1) = (     1          0          0      )
                  (     0          1          0      )
                  (     0          0          1      )

 cart.    s( 1) = (  1.0000000 -0.0000000  0.0000000 )
                  (  0.0000000  1.0000000  0.0000000 )
                  (  0.0000000  0.0000000  1.0000000 )


      isym =  2     inv. 180 deg rotation - cart. axis [0,0,1]   

 cryst.   s( 2) = (     1          0          0      )
                  (     0          1          0      )
                  (     0          0         -1      )

 cart.    s( 2) = (  1.0000000 -0.0000000  0.0000000 )
                  (  0.0000000  1.0000000  0.0000000 )
                  (  0.0000000  0.0000000 -1.0000000 )


   Cartesian axes

     site n.     atom                  positions (alat units)
         1           B   tau(   1) = (  -0.0001399   0.0960752   0.5276366  )
         2           B   tau(   2) = (  -0.0832713   0.2406646   0.5276366  )
         3           B   tau(   3) = (  -0.1665470   0.3849027   0.5276366  )
         4           B   tau(   4) = (  -0.2501991   0.5291915   0.5276366  )
         5           B   tau(   5) = (  -0.3332477   0.6735957   0.5276366  )
         6           B   tau(   6) = (  -0.4166059   0.8179767   0.5276366  )
         7           B   tau(   7) = (   0.1666502   0.0960603   0.5276366  )
         8           B   tau(   8) = (   0.0832782   0.2404461   0.5276366  )
         9           B   tau(   9) = (   0.0006436   0.3852715   0.5276366  )
        10           B   tau(  10) = (  -0.0834613   0.5292482   0.5276366  )
        11           B   tau(  11) = (  -0.1668167   0.6736435   0.5276366  )
        12           B   tau(  12) = (  -0.2500117   0.8179060   0.5276366  )
        13           B   tau(  13) = (   0.3334867   0.0959588   0.5276366  )
        14           B   tau(  14) = (   0.2504293   0.2394697   0.5276366  )
        15           B   tau(  15) = (   0.1680121   0.3835200   0.5276366  )
        16           B   tau(  16) = (   0.0828110   0.5310928   0.5276366  )
        17           B   tau(  17) = (  -0.0007312   0.6744936   0.5276366  )
        18           B   tau(  18) = (  -0.0834862   0.8181790   0.5276366  )
        19           B   tau(  19) = (   0.5000762   0.0962689   0.5276366  )
        20           B   tau(  20) = (   0.4165055   0.2409072   0.5276366  )
        21           B   tau(  21) = (   0.3321651   0.3851579   0.5276366  )
        22           B   tau(  22) = (   0.1663063   0.6724347   0.5276366  )
        23           B   tau(  23) = (   0.0835520   0.8176011   0.5276366  )
        24           B   tau(  24) = (   0.6666809   0.0961407   0.5276366  )
        25           B   tau(  25) = (   0.5832677   0.2406169   0.5276366  )
        26           B   tau(  26) = (   0.4996906   0.3850126   0.5276366  )
        27           B   tau(  27) = (   0.4164097   0.5300890   0.5276366  )
        28           B   tau(  28) = (   0.3339424   0.6729270   0.5276366  )
        29           B   tau(  29) = (   0.2499433   0.8175888   0.5276366  )
        30           B   tau(  30) = (   0.8332570   0.0961317   0.5276366  )
        31           B   tau(  31) = (   0.7499679   0.2405439   0.5276366  )
        32           B   tau(  32) = (   0.6665481   0.3848807   0.5276366  )
        33           B   tau(  33) = (   0.5829889   0.5292655   0.5276366  )
        34           B   tau(  34) = (   0.5004891   0.6738575   0.5276366  )
        35           B   tau(  35) = (   0.4165190   0.8176007   0.5276366  )
        36           N   tau(  36) = (   0.0832560   0.0479756   0.5276366  )
        37           N   tau(  37) = (  -0.0001321   0.1921633   0.5276366  )
        38           N   tau(  38) = (  -0.0831266   0.3369068   0.5276366  )
        39           N   tau(  39) = (  -0.1669805   0.4811541   0.5276366  )
        40           N   tau(  40) = (  -0.2501564   0.6254644   0.5276366  )
        41           N   tau(  41) = (  -0.3333797   0.7697734   0.5276366  )
        42           N   tau(  42) = (   0.2500494   0.0480048   0.5276366  )
        43           N   tau(  43) = (   0.1667584   0.1920478   0.5276366  )
        44           N   tau(  44) = (   0.0836656   0.3362562   0.5276366  )
        45           N   tau(  45) = (  -0.0002938   0.4816785   0.5276366  )
        46           N   tau(  46) = (  -0.0836352   0.6257433   0.5276366  )
        47           N   tau(  47) = (  -0.1667343   0.7698971   0.5276366  )
        48           N   tau(  48) = (   0.4167718   0.0481730   0.5276366  )
        49           N   tau(  49) = (   0.3337512   0.1919934   0.5276366  )
        50           N   tau(  50) = (   0.2508806   0.3352805   0.5276366  )
        51           N   tau(  51) = (   0.0824689   0.6269789   0.5276366  )
        52           N   tau(  52) = (  -0.0001857   0.7703906   0.5276366  )
        53           N   tau(  53) = (   0.5834878   0.0479293   0.5276366  )
        54           N   tau(  54) = (   0.4999189   0.1926753   0.5276366  )
        55           N   tau(  55) = (   0.4161395   0.3376465   0.5276366  )
        56           N   tau(  56) = (   0.3315618   0.4833570   0.5276366  )
        57           N   tau(  57) = (   0.2510473   0.6228124   0.5276366  )
        58           N   tau(  58) = (   0.1671475   0.7689144   0.5276366  )
        59           N   tau(  59) = (   0.7499723   0.0477900   0.5276366  )
        60           N   tau(  60) = (   0.6665900   0.1924056   0.5276366  )
        61           N   tau(  61) = (   0.5830407   0.3369248   0.5276366  )
        62           N   tau(  62) = (   0.4991296   0.4813270   0.5276366  )
        63           N   tau(  63) = (   0.4170969   0.6257110   0.5276366  )
        64           N   tau(  64) = (   0.3330734   0.7689455   0.5276366  )
        65           N   tau(  65) = (   0.9164586   0.0477322   0.5276366  )
        66           N   tau(  66) = (   0.8332737   0.1923549   0.5276366  )
        67           N   tau(  67) = (   0.7498881   0.3367833   0.5276366  )
        68           N   tau(  68) = (   0.6662339   0.4811352   0.5276366  )
        69           N   tau(  69) = (   0.5833268   0.6254547   0.5276366  )
        70           N   tau(  70) = (   0.4999900   0.7697986   0.5276366  )
        71           C   tau(  71) = (   0.2499288   0.5291964   0.5276366  )
        72           C   tau(  72) = (   0.1706387   0.4834183   0.5276366  )

   Crystallographic axes

     site n.     atom                  positions (cryst. coord.)
         1           B   tau(   1) = (  0.0553290  0.1109380  0.5000000  )
         2           B   tau(   2) = (  0.0556761  0.2778954  0.5000000  )
         3           B   tau(   3) = (  0.0556761  0.4444471  0.5000000  )
         4           B   tau(   4) = (  0.0553290  0.6110573  0.5000000  )
         5           B   tau(   5) = (  0.0556519  0.7778008  0.5000000  )
         6           B   tau(   6) = (  0.0556519  0.9445175  0.5000000  )
         7           B   tau(   7) = (  0.2221105  0.1109208  0.5000000  )
         8           B   tau(   8) = (  0.2220995  0.2776431  0.5000000  )
         9           B   tau(   9) = (  0.2230796  0.4448729  0.5000000  )
        10           B   tau(  10) = (  0.2220995  0.6111227  0.5000000  )
        11           B   tau(  11) = (  0.2221105  0.7778560  0.5000000  )
        12           B   tau(  12) = (  0.2222053  0.9444358  0.5000000  )
        13           B   tau(  13) = (  0.3888884  0.1108037  0.5000000  )
        14           B   tau(  14) = (  0.3886868  0.2765156  0.5000000  )
        15           B   tau(  15) = (  0.3894368  0.4428504  0.5000000  )
        16           B   tau(  16) = (  0.3894368  0.6132528  0.5000000  )
        17           B   tau(  17) = (  0.3886868  0.7788376  0.5000000  )
        18           B   tau(  18) = (  0.3888884  0.9447511  0.5000000  )
        19           B   tau(  19) = (  0.5556569  0.1111616  0.5000000  )
        20           B   tau(  20) = (  0.5555929  0.2781755  0.5000000  )
        21           B   tau(  21) = (  0.5545356  0.4447418  0.5000000  )
        22           B   tau(  22) = (  0.5545356  0.7764601  0.5000000  )
        23           B   tau(  23) = (  0.5555929  0.9440838  0.5000000  )
        24           B   tau(  24) = (  0.7221876  0.1110136  0.5000000  )
        25           B   tau(  25) = (  0.7221876  0.2778403  0.5000000  )
        26           B   tau(  26) = (  0.7219771  0.4445740  0.5000000  )
        27           B   tau(  27) = (  0.7224559  0.6120936  0.5000000  )
        28           B   tau(  28) = (  0.7224559  0.7770286  0.5000000  )
        29           B   tau(  29) = (  0.7219771  0.9440695  0.5000000  )
        30           B   tau(  30) = (  0.8887585  0.1110032  0.5000000  )
        31           B   tau(  31) = (  0.8888457  0.2777560  0.5000000  )
        32           B   tau(  32) = (  0.8887585  0.4444216  0.5000000  )
        33           B   tau(  33) = (  0.8885597  0.6111427  0.5000000  )
        34           B   tau(  34) = (  0.8895399  0.7781031  0.5000000  )
        35           B   tau(  35) = (  0.8885596  0.9440833  0.5000000  )
        36           N   tau(  36) = (  0.1109546  0.0553974  0.5000000  )
        37           N   tau(  37) = (  0.1108132  0.2218909  0.5000000  )
        38           N   tau(  38) = (  0.1113861  0.3890262  0.5000000  )
        39           N   tau(  39) = (  0.1108132  0.5555885  0.5000000  )
        40           N   tau(  40) = (  0.1109546  0.7222236  0.5000000  )
        41           N   tau(  41) = (  0.1110480  0.8888572  0.5000000  )
        42           N   tau(  42) = (  0.2777648  0.0554311  0.5000000  )
        43           N   tau(  43) = (  0.2776369  0.2217575  0.5000000  )
        44           N   tau(  44) = (  0.2778026  0.3882749  0.5000000  )
        45           N   tau(  45) = (  0.2778026  0.5561940  0.5000000  )
        46           N   tau(  46) = (  0.2776369  0.7225456  0.5000000  )
        47           N   tau(  47) = (  0.2777648  0.8890000  0.5000000  )
        48           N   tau(  48) = (  0.4445845  0.0556254  0.5000000  )
        49           N   tau(  49) = (  0.4445983  0.2216948  0.5000000  )
        50           N   tau(  50) = (  0.4444543  0.3871483  0.5000000  )
        51           N   tau(  51) = (  0.4444543  0.7239723  0.5000000  )
        52           N   tau(  52) = (  0.4445983  0.8895698  0.5000000  )
        53           N   tau(  53) = (  0.6111597  0.0553439  0.5000000  )
        54           N   tau(  54) = (  0.6111597  0.2224821  0.5000000  )
        55           N   tau(  55) = (  0.6110793  0.3898803  0.5000000  )
        56           N   tau(  56) = (  0.6106273  0.5581322  0.5000000  )
        57           N   tau(  57) = (  0.6106273  0.7191614  0.5000000  )
        58           N   tau(  58) = (  0.6110793  0.8878653  0.5000000  )
        59           N   tau(  59) = (  0.7775638  0.0551831  0.5000000  )
        60           N   tau(  60) = (  0.7776751  0.2221707  0.5000000  )
        61           N   tau(  61) = (  0.7775638  0.3890470  0.5000000  )
        62           N   tau(  62) = (  0.7770231  0.5557881  0.5000000  )
        63           N   tau(  63) = (  0.7783503  0.7225083  0.5000000  )
        64           N   tau(  64) = (  0.7770231  0.8879012  0.5000000  )
        65           N   tau(  65) = (  0.9440167  0.0551163  0.5000000  )
        66           N   tau(  66) = (  0.9443295  0.2221122  0.5000000  )
        67           N   tau(  67) = (  0.9443296  0.3888836  0.5000000  )
        68           N   tau(  68) = (  0.9440167  0.5555667  0.5000000  )
        69           N   tau(  69) = (  0.9444322  0.7222123  0.5000000  )
        70           N   tau(  70) = (  0.9444322  0.8888862  0.5000000  )
        71           C   tau(  71) = (  0.5554597  0.6110630  0.5000000  )
        72           C   tau(  72) = (  0.4497397  0.5582030  0.5000000  )

     number of k points=     1
                       cart. coord. in units 2pi/alat
        k(    1) = (   0.0000000   0.0000000   0.0000000), wk =   1.0000000

                       cryst. coord.
        k(    1) = (   0.0000000   0.0000000   0.0000000), wk =   1.0000000

     Dense  grid:  1156971 G-vectors     FFT dimensions: ( 135, 135, 144)

     Estimated max dynamical RAM per process >      68.84MB

     Estimated total allocated dynamical RAM >   11014.86MB
     Generating pointlists ...
     new r_m :   0.0393 (alat units)  1.1184 (a.u.) for type    1
     new r_m :   0.0386 (alat units)  1.0979 (a.u.) for type    2
     new r_m :   0.0378 (alat units)  1.0737 (a.u.) for type    3

     Initial potential from superposition of free atoms
     Check: negative starting charge=(component1):   -0.001385
     Check: negative starting charge=(component2):   -0.001913

     starting charge  287.99093, renormalised to  288.00000

     negative rho (up, down):  1.385E-03 1.913E-03
     Starting wfc are  288 randomized atomic wfcs

     total cpu time spent up to now is        3.2 secs

     per-process dynamical memory:    91.4 Mb

     Self-consistent Calculation

     iteration #  1     ecut=    55.00 Ry     beta=0.70
     Davidson diagonalization with overlap
     ethr =  1.00E-02,  avg # of iterations =  2.5

     negative rho (up, down):  1.552E-04 3.038E-04

     total cpu time spent up to now is        4.6 secs

     total energy              =    -916.57975776 Ry
     Harris-Foulkes estimate   =    -922.75082523 Ry
     estimated scf accuracy    <      17.33786111 Ry

     total magnetization       =     0.00 Bohr mag/cell
     absolute magnetization    =    18.29 Bohr mag/cell

     iteration #  2     ecut=    55.00 Ry     beta=0.70
     Davidson diagonalization with overlap
     ethr =  6.02E-03,  avg # of iterations =  3.0

     negative rho (up, down):  6.533E-05 1.189E-04

     total cpu time spent up to now is        6.0 secs

     total energy              =    -921.55616536 Ry
     Harris-Foulkes estimate   =    -925.94686200 Ry
     estimated scf accuracy    <      10.21102433 Ry

     total magnetization       =     0.00 Bohr mag/cell
     absolute magnetization    =    13.63 Bohr mag/cell

     iteration #  3     ecut=    55.00 Ry     beta=0.70
     Davidson diagonalization with overlap
     ethr =  3.55E-03,  avg # of iterations =  3.0

     negative rho (up, down):  1.751E-06 4.483E-06

     total cpu time spent up to now is        7.3 secs

     total energy              =    -923.65514015 Ry
     Harris-Foulkes estimate   =    -923.51764121 Ry
     estimated scf accuracy    <       0.31253208 Ry

     total magnetization       =     0.00 Bohr mag/cell
     absolute magnetization    =     8.65 Bohr mag/cell

     iteration #  4     ecut=    55.00 Ry     beta=0.70
     Davidson diagonalization with overlap
     c_bands:  4 eigenvalues not converged
     ethr =  1.09E-04,  avg # of iterations = 19.0

     total cpu time spent up to now is       11.2 secs

     total energy              =    -923.80624350 Ry
     Harris-Foulkes estimate   =    -923.98029681 Ry
     estimated scf accuracy    <       0.56025127 Ry

     total magnetization       =    -0.00 Bohr mag/cell
     absolute magnetization    =     4.83 Bohr mag/cell

     iteration #  5     ecut=    55.00 Ry     beta=0.70
     Davidson diagonalization with overlap
     ethr =  1.09E-04,  avg # of iterations =  5.0

     negative rho (up, down):  7.622E-09 1.384E-08

     total cpu time spent up to now is       12.6 secs

     total energy              =    -923.91160091 Ry
     Harris-Foulkes estimate   =    -923.91004245 Ry
     estimated scf accuracy    <       0.02929335 Ry

     total magnetization       =     0.00 Bohr mag/cell
     absolute magnetization    =     3.46 Bohr mag/cell

     iteration #  6     ecut=    55.00 Ry     beta=0.70
     Davidson diagonalization with overlap
     ethr =  1.02E-05,  avg # of iterations =  7.0

     total cpu time spent up to now is       14.5 secs

     total energy              =    -923.93061458 Ry
     Harris-Foulkes estimate   =    -923.91943487 Ry
     estimated scf accuracy    <       0.00571689 Ry

     total magnetization       =     0.00 Bohr mag/cell
     absolute magnetization    =     2.55 Bohr mag/cell

     iteration #  7     ecut=    55.00 Ry     beta=0.70
     Davidson diagonalization with overlap
     ethr =  1.99E-06,  avg # of iterations =  3.5

     total cpu time spent up to now is       16.5 secs

     total energy              =    -923.93776187 Ry
     Harris-Foulkes estimate   =    -923.93785964 Ry
     estimated scf accuracy    <       0.00485201 Ry

     total magnetization       =    -0.00 Bohr mag/cell
     absolute magnetization    =     0.95 Bohr mag/cell

     iteration #  8     ecut=    55.00 Ry     beta=0.70
     Davidson diagonalization with overlap
     ethr =  1.68E-06,  avg # of iterations =  2.5

     total cpu time spent up to now is       17.8 secs

     total energy              =    -923.93861945 Ry
     Harris-Foulkes estimate   =    -923.93853129 Ry
     estimated scf accuracy    <       0.00087552 Ry

     total magnetization       =    -0.00 Bohr mag/cell
     absolute magnetization    =     0.54 Bohr mag/cell

     iteration #  9     ecut=    55.00 Ry     beta=0.70
     Davidson diagonalization with overlap
     ethr =  3.04E-07,  avg # of iterations =  3.0

     total cpu time spent up to now is       19.3 secs

     total energy              =    -923.93910240 Ry
     Harris-Foulkes estimate   =    -923.93909824 Ry
     estimated scf accuracy    <       0.00007132 Ry

     total magnetization       =     0.00 Bohr mag/cell
     absolute magnetization    =     0.16 Bohr mag/cell

     iteration # 10     ecut=    55.00 Ry     beta=0.70
     Davidson diagonalization with overlap
     ethr =  2.48E-08,  avg # of iterations =  3.0

     total cpu time spent up to now is       20.8 secs

     total energy              =    -923.93916263 Ry
     Harris-Foulkes estimate   =    -923.93916858 Ry
     estimated scf accuracy    <       0.00001612 Ry

     total magnetization       =    -0.00 Bohr mag/cell
     absolute magnetization    =     0.02 Bohr mag/cell

     iteration # 11     ecut=    55.00 Ry     beta=0.70
     Davidson diagonalization with overlap
     ethr =  5.60E-09,  avg # of iterations =  3.0

     total cpu time spent up to now is       22.0 secs

     total energy              =    -923.93916658 Ry
     Harris-Foulkes estimate   =    -923.93916622 Ry
     estimated scf accuracy    <       0.00000060 Ry

     total magnetization       =     0.00 Bohr mag/cell
     absolute magnetization    =     0.01 Bohr mag/cell

     iteration # 12     ecut=    55.00 Ry     beta=0.70
     Davidson diagonalization with overlap
     ethr =  2.07E-10,  avg # of iterations =  3.5

     total cpu time spent up to now is       23.6 secs

     total energy              =    -923.93916699 Ry
     Harris-Foulkes estimate   =    -923.93916689 Ry
     estimated scf accuracy    <       0.00000014 Ry

     total magnetization       =    -0.00 Bohr mag/cell
     absolute magnetization    =     0.00 Bohr mag/cell

     iteration # 13     ecut=    55.00 Ry     beta=0.70
     Davidson diagonalization with overlap
     ethr =  4.89E-11,  avg # of iterations =  3.5

     total cpu time spent up to now is       24.9 secs

     total energy              =    -923.93916710 Ry
     Harris-Foulkes estimate   =    -923.93916705 Ry
     estimated scf accuracy    <       0.00000003 Ry

     total magnetization       =     0.00 Bohr mag/cell
     absolute magnetization    =     0.00 Bohr mag/cell

     iteration # 14     ecut=    55.00 Ry     beta=0.70
     Davidson diagonalization with overlap
     ethr =  1.18E-11,  avg # of iterations =  4.0
 
     Magnetic moment per site:
     atom:    1    charge:    0.8592    magn:   -0.0000    constr:    0.0000
     atom:    2    charge:    0.8583    magn:   -0.0000    constr:    0.0000
     atom:    3    charge:    0.8583    magn:    0.0000    constr:    0.0000
     atom:    4    charge:    0.8592    magn:   -0.0000    constr:    0.0000
     atom:    5    charge:    0.8611    magn:    0.0000    constr:    0.0000
     atom:    6    charge:    0.8611    magn:    0.0000    constr:    0.0000
     atom:    7    charge:    0.8633    magn:   -0.0000    constr:    0.0000
     atom:    8    charge:    0.8604    magn:   -0.0000    constr:    0.0000
     atom:    9    charge:    0.8552    magn:   -0.0000    constr:    0.0000
     atom:   10    charge:    0.8604    magn:   -0.0000    constr:    0.0000
     atom:   11    charge:    0.8633    magn:   -0.0000    constr:    0.0000
     atom:   12    charge:    0.8612    magn:   -0.0000    constr:    0.0000
     atom:   13    charge:    0.8626    magn:   -0.0000    constr:    0.0000
     atom:   14    charge:    0.8662    magn:   -0.0000    constr:    0.0000
     atom:   15    charge:    0.8687    magn:   -0.0000    constr:    0.0000
     atom:   16    charge:    0.8687    magn:   -0.0000    constr:    0.0000
     atom:   17    charge:    0.8662    magn:   -0.0000    constr:    0.0000
     atom:   18    charge:    0.8626    magn:   -0.0000    constr:    0.0000
     atom:   19    charge:    0.8594    magn:    0.0000    constr:    0.0000
     atom:   20    charge:    0.8560    magn:    0.0000    constr:    0.0000
     atom:   21    charge:    0.8539    magn:    0.0000    constr:    0.0000
     atom:   22    charge:    0.8539    magn:    0.0000    constr:    0.0000
     atom:   23    charge:    0.8560    magn:    0.0000    constr:    0.0000
     atom:   24    charge:    0.8595    magn:    0.0000    constr:    0.0000
     atom:   25    charge:    0.8595    magn:    0.0000    constr:    0.0000
     atom:   26    charge:    0.8607    magn:    0.0000    constr:    0.0000
     atom:   27    charge:    0.8621    magn:    0.0000    constr:    0.0000
     atom:   28    charge:    0.8621    magn:    0.0000    constr:    0.0000
     atom:   29    charge:    0.8607    magn:    0.0000    constr:    0.0000
     atom:   30    charge:    0.8612    magn:    0.0000    constr:    0.0000
     atom:   31    charge:    0.8594    magn:    0.0000    constr:    0.0000
     atom:   32    charge:    0.8612    magn:    0.0000    constr:    0.0000
     atom:   33    charge:    0.8580    magn:    0.0000    constr:    0.0000
     atom:   34    charge:    0.8652    magn:    0.0000    constr:    0.0000
     atom:   35    charge:    0.8580    magn:    0.0000    constr:    0.0000
     atom:   36    charge:    2.7262    magn:   -0.0000    constr:    0.0000
     atom:   37    charge:    2.7226    magn:    0.0000    constr:    0.0000
     atom:   38    charge:    2.7222    magn:   -0.0000    constr:    0.0000
     atom:   39    charge:    2.7226    magn:    0.0000    constr:    0.0000
     atom:   40    charge:    2.7262    magn:   -0.0000    constr:    0.0000
     atom:   41    charge:    2.7233    magn:   -0.0000    constr:    0.0000
     atom:   42    charge:    2.7261    magn:   -0.0000    constr:    0.0000
     atom:   43    charge:    2.7258    magn:    0.0000    constr:    0.0000
     atom:   44    charge:    2.7214    magn:    0.0000    constr:    0.0000
     atom:   45    charge:    2.7214    magn:    0.0000    constr:    0.0000
     atom:   46    charge:    2.7258    magn:    0.0000    constr:    0.0000
     atom:   47    charge:    2.7261    magn:   -0.0000    constr:    0.0000
     atom:   48    charge:    2.7285    magn:   -0.0000    constr:    0.0000
     atom:   49    charge:    2.7269    magn:    0.0000    constr:    0.0000
     atom:   50    charge:    2.7310    magn:   -0.0000    constr:    0.0000
     atom:   51    charge:    2.7310    magn:   -0.0000    constr:    0.0000
     atom:   52    charge:    2.7269    magn:    0.0000    constr:    0.0000
     atom:   53    charge:    2.7238    magn:   -0.0000    constr:    0.0000
     atom:   54    charge:    2.7238    magn:   -0.0000    constr:    0.0000
     atom:   55    charge:    2.7210    magn:   -0.0000    constr:    0.0000
     atom:   56    charge:    2.7018    magn:   -0.0000    constr:    0.0000
     atom:   57    charge:    2.7018    magn:   -0.0000    constr:    0.0000
     atom:   58    charge:    2.7210    magn:   -0.0000    constr:    0.0000
     atom:   59    charge:    2.7243    magn:   -0.0000    constr:    0.0000
     atom:   60    charge:    2.7220    magn:   -0.0000    constr:    0.0000
     atom:   61    charge:    2.7243    magn:   -0.0000    constr:    0.0000
     atom:   62    charge:    2.7212    magn:   -0.0000    constr:    0.0000
     atom:   63    charge:    2.7325    magn:   -0.0000    constr:    0.0000
     atom:   64    charge:    2.7212    magn:   -0.0000    constr:    0.0000
     atom:   65    charge:    2.7245    magn:   -0.0000    constr:    0.0000
     atom:   66    charge:    2.7243    magn:   -0.0000    constr:    0.0000
     atom:   67    charge:    2.7243    magn:   -0.0000    constr:    0.0000
     atom:   68    charge:    2.7245    magn:   -0.0000    constr:    0.0000
     atom:   69    charge:    2.7272    magn:   -0.0000    constr:    0.0000
     atom:   70    charge:    2.7272    magn:   -0.0000    constr:    0.0000
     atom:   71    charge:    1.5271    magn:    0.0001    constr:    0.0000
     atom:   72    charge:    1.6157    magn:   -0.0001    constr:    0.0000

     total cpu time spent up to now is       26.4 secs

     End of self-consistent calculation

 ------ SPIN UP ------------


          k = 0.0000 0.0000 0.0000 (144701 PWs)   bands (ev):

   -21.9565 -21.1682 -20.8380 -20.7967 -20.7468 -20.7262 -20.6128 -20.1239
   -19.9536 -19.8064 -19.7934 -19.7553 -19.6556 -19.4851 -19.4662 -19.3624
   -19.3361 -19.3221 -19.0887 -18.7352 -18.5120 -18.4090 -18.3603 -18.3326
   -18.3322 -18.3022 -18.2964 -18.2772 -18.2692 -18.2600 -18.2226 -18.1538
   -18.1324 -17.7360 -17.6511 -15.6257 -13.1751 -12.5402 -12.5304 -12.2249
   -12.0342 -11.7851 -11.7774 -11.7391 -11.7391 -11.7037 -11.6875 -11.6857
   -11.6613 -11.6013 -11.5851 -11.5561 -11.5004 -11.0062 -10.7798 -10.6737
   -10.6100 -10.5670 -10.5002 -10.4390 -10.3954  -9.6415  -9.4457  -9.2212
    -9.2114  -9.1729  -9.1684  -9.1285  -9.1211  -9.0344  -9.0240  -9.0112
    -8.9891  -8.9824  -8.9728  -8.9573  -8.9495  -8.9004  -8.7960  -8.6043
    -8.4898  -8.2115  -8.1945  -8.1509  -8.1261  -8.0502  -8.0104  -7.8504
    -7.8251  -7.7158  -7.6840  -7.6344  -7.6252  -7.5292  -7.5034  -7.3791
    -7.3176  -7.3073  -7.2508  -7.2297  -7.1270  -7.1033  -7.0176  -7.0082
    -6.9957  -6.9540  -6.8819  -6.8418  -6.8342  -6.8296  -6.7933  -6.6954
    -6.4750  -6.3701  -6.2667  -6.2331  -6.2115  -6.1879  -6.0288  -6.0021
    -5.9420  -5.8981  -5.8939  -5.8411  -5.3841  -4.9985  -4.9685  -4.9484
    -4.7777  -4.7573  -4.7326  -4.7195  -4.7015  -4.6887  -4.6675  -4.6603
    -4.6405  -4.5877  -4.5788  -4.5299  -4.4792  -3.9613  -3.6591  -3.1645
     0.3881   1.0501   1.0706   1.1194   1.1783   1.1963   1.4740   1.7285
     1.8003   1.8043   1.8201   1.8384   1.8713   1.8853   1.9015   1.9029
     1.9134   1.9239   1.9406   1.9688   1.9816   1.9826   2.0379   2.0528

     occupation numbers 
     1.0000   1.0000   1.0000   1.0000   1.0000   1.0000   1.0000   1.0000
     1.0000   1.0000   1.0000   1.0000   1.0000   1.0000   1.0000   1.0000
     1.0000   1.0000   1.0000   1.0000   1.0000   1.0000   1.0000   1.0000
     1.0000   1.0000   1.0000   1.0000   1.0000   1.0000   1.0000   1.0000
     1.0000   1.0000   1.0000   1.0000   1.0000   1.0000   1.0000   1.0000
     1.0000   1.0000   1.0000   1.0000   1.0000   1.0000   1.0000   1.0000
     1.0000   1.0000   1.0000   1.0000   1.0000   1.0000   1.0000   1.0000
     1.0000   1.0000   1.0000   1.0000   1.0000   1.0000   1.0000   1.0000
     1.0000   1.0000   1.0000   1.0000   1.0000   1.0000   1.0000   1.0000
     1.0000   1.0000   1.0000   1.0000   1.0000   1.0000   1.0000   1.0000
     1.0000   1.0000   1.0000   1.0000   1.0000   1.0000   1.0000   1.0000
     1.0000   1.0000   1.0000   1.0000   1.0000   1.0000   1.0000   1.0000
     1.0000   1.0000   1.0000   1.0000   1.0000   1.0000   1.0000   1.0000
     1.0000   1.0000   1.0000   1.0000   1.0000   1.0000   1.0000   1.0000
     1.0000   1.0000   1.0000   1.0000   1.0000   1.0000   1.0000   1.0000
     1.0000   1.0000   1.0000   1.0000   1.0000   1.0000   1.0000   1.0000
     1.0000   1.0000   1.0000   1.0000   1.0000   1.0000   1.0000   1.0000
     1.0000   1.0000   1.0000   1.0000   1.0000   1.0000   1.0000   1.0000
     0.0000   0.0000   0.0000   0.0000   0.0000   0.0000   0.0000   0.0000
     0.0000   0.0000   0.0000   0.0000   0.0000   0.0000   0.0000   0.0000
     0.0000   0.0000   0.0000   0.0000   0.0000   0.0000   0.0000   0.0000

 ------ SPIN DOWN ----------


          k = 0.0000 0.0000 0.0000 (144701 PWs)   bands (ev):

   -21.9564 -21.1682 -20.8380 -20.7967 -20.7468 -20.7262 -20.6128 -20.1238
   -19.9537 -19.8063 -19.7934 -19.7553 -19.6556 -19.4851 -19.4662 -19.3624
   -19.3361 -19.3221 -19.0887 -18.7352 -18.5120 -18.4090 -18.3603 -18.3326
   -18.3322 -18.3022 -18.2964 -18.2772 -18.2692 -18.2600 -18.2226 -18.1538
   -18.1324 -17.7360 -17.6510 -15.6257 -13.1750 -12.5402 -12.5304 -12.2249
   -12.0342 -11.7850 -11.7774 -11.7391 -11.7391 -11.7037 -11.6874 -11.6857
   -11.6613 -11.6013 -11.5851 -11.5561 -11.5004 -11.0062 -10.7798 -10.6737
   -10.6100 -10.5670 -10.5002 -10.4390 -10.3954  -9.6414  -9.4457  -9.2212
    -9.2114  -9.1729  -9.1684  -9.1285  -9.1211  -9.0344  -9.0240  -9.0112
    -8.9891  -8.9824  -8.9727  -8.9573  -8.9495  -8.9004  -8.7960  -8.6043
    -8.4897  -8.2114  -8.1945  -8.1509  -8.1261  -8.0502  -8.0104  -7.8504
    -7.8251  -7.7157  -7.6839  -7.6344  -7.6251  -7.5292  -7.5034  -7.3790
    -7.3176  -7.3073  -7.2507  -7.2297  -7.1270  -7.1032  -7.0175  -7.0082
    -6.9957  -6.9540  -6.8819  -6.8418  -6.8342  -6.8296  -6.7934  -6.6954
    -6.4750  -6.3701  -6.2667  -6.2331  -6.2115  -6.1879  -6.0287  -6.0022
    -5.9420  -5.8981  -5.8939  -5.8411  -5.3841  -4.9985  -4.9685  -4.9484
    -4.7778  -4.7573  -4.7326  -4.7195  -4.7015  -4.6887  -4.6675  -4.6603
    -4.6405  -4.5878  -4.5788  -4.5299  -4.4792  -3.9614  -3.6591  -3.1647
     0.3886   1.0502   1.0707   1.1195   1.1783   1.1963   1.4741   1.7285
     1.8003   1.8044   1.8201   1.8384   1.8714   1.8853   1.9015   1.9029
     1.9134   1.9239   1.9405   1.9685   1.9816   1.9826   2.0379   2.0617

     occupation numbers 
     1.0000   1.0000   1.0000   1.0000   1.0000   1.0000   1.0000   1.0000
     1.0000   1.0000   1.0000   1.0000   1.0000   1.0000   1.0000   1.0000
     1.0000   1.0000   1.0000   1.0000   1.0000   1.0000   1.0000   1.0000
     1.0000   1.0000   1.0000   1.0000   1.0000   1.0000   1.0000   1.0000
     1.0000   1.0000   1.0000   1.0000   1.0000   1.0000   1.0000   1.0000
     1.0000   1.0000   1.0000   1.0000   1.0000   1.0000   1.0000   1.0000
     1.0000   1.0000   1.0000   1.0000   1.0000   1.0000   1.0000   1.0000
     1.0000   1.0000   1.0000   1.0000   1.0000   1.0000   1.0000   1.0000
     1.0000   1.0000   1.0000   1.0000   1.0000   1.0000   1.0000   1.0000
     1.0000   1.0000   1.0000   1.0000   1.0000   1.0000   1.0000   1.0000
     1.0000   1.0000   1.0000   1.0000   1.0000   1.0000   1.0000   1.0000
     1.0000   1.0000   1.0000   1.0000   1.0000   1.0000   1.0000   1.0000
     1.0000   1.0000   1.0000   1.0000   1.0000   1.0000   1.0000   1.0000
     1.0000   1.0000   1.0000   1.0000   1.0000   1.0000   1.0000   1.0000
     1.0000   1.0000   1.0000   1.0000   1.0000   1.0000   1.0000   1.0000
     1.0000   1.0000   1.0000   1.0000   1.0000   1.0000   1.0000   1.0000
     1.0000   1.0000   1.0000   1.0000   1.0000   1.0000   1.0000   1.0000
     1.0000   1.0000   1.0000   1.0000   1.0000   1.0000   1.0000   1.0000
     0.0000   0.0000   0.0000   0.0000   0.0000   0.0000   0.0000   0.0000
     0.0000   0.0000   0.0000   0.0000   0.0000   0.0000   0.0000   0.0000
     0.0000   0.0000   0.0000   0.0000   0.0000   0.0000   0.0000   0.0000

     highest occupied, lowest unoccupied level (ev):    -3.1645    0.3881

!    total energy              =    -923.93916713 Ry
     Harris-Foulkes estimate   =    -923.93916712 Ry
     estimated scf accuracy    <          4.7E-09 Ry

     The total energy is the sum of the following terms:

     one-electron contribution =   -6004.63135498 Ry
     hartree contribution      =    3060.52272388 Ry
     xc contribution           =    -264.88035817 Ry
     ewald contribution        =    2285.04982214 Ry

     total magnetization       =     0.00 Bohr mag/cell
     absolute magnetization    =     0.00 Bohr mag/cell

     convergence has been achieved in  14 iterations

     Writing output data file BN.save
 
     init_run     :      2.37s CPU      2.91s WALL (       1 calls)
     electrons    :     23.02s CPU     23.54s WALL (       1 calls)

     Called by init_run:
     wfcinit      :      0.50s CPU      0.54s WALL (       1 calls)
     wfcinit:atom :      0.01s CPU      0.01s WALL (       1 calls)
     wfcinit:wfcr :      0.47s CPU      0.51s WALL (       1 calls)
     potinit      :      0.43s CPU      0.46s WALL (       1 calls)

     Called by electrons:
     c_bands      :     20.61s CPU     20.87s WALL (      14 calls)
     sum_band     :      1.30s CPU      1.33s WALL (      14 calls)
     v_of_rho     :      0.68s CPU      0.71s WALL (      15 calls)
     v_h          :      0.03s CPU      0.03s WALL (      15 calls)
     v_xc         :      0.65s CPU      0.67s WALL (      15 calls)
     mix_rho      :      0.19s CPU      0.20s WALL (      14 calls)

     Called by c_bands:
     init_us_2    :      0.21s CPU      0.21s WALL (      29 calls)
     cegterg      :     19.30s CPU     19.55s WALL (      14 calls)

     Called by sum_band:

     Called by *egterg:
     h_psi        :      9.92s CPU     10.01s WALL (      84 calls)
     g_psi        :      0.04s CPU      0.04s WALL (      69 calls)
     cdiaghg      :      5.92s CPU      5.97s WALL (      83 calls)
     cegterg:over :      1.52s CPU      1.54s WALL (      69 calls)
     cegterg:upda :      0.98s CPU      0.98s WALL (      69 calls)
     cegterg:last :      0.38s CPU      0.38s WALL (      15 calls)

     Called by h_psi:
     h_psi:pot    :      9.75s CPU      9.83s WALL (      84 calls)
     h_psi:calbec :      1.48s CPU      1.49s WALL (      84 calls)
     vloc_psi     :      6.88s CPU      6.94s WALL (      84 calls)
     add_vuspsi   :      1.39s CPU      1.40s WALL (      84 calls)

     General routines
     calbec       :      1.48s CPU      1.49s WALL (      84 calls)
     fft          :      0.51s CPU      0.53s WALL (     312 calls)
     fftw         :      7.31s CPU      7.37s WALL (   16968 calls)
 
     Parallel routines
     fft_scatter  :      4.48s CPU      4.53s WALL (   17280 calls)
 
     PWSCF        :    28.11s CPU        30.35s WALL

 
   This run was terminated on:  22:51:20  10Feb2021            

=------------------------------------------------------------------------------=
   JOB DONE.
=------------------------------------------------------------------------------=
