/export/data/share/tjsmart/Hematite/2019-Cluster-Defects
/export/data/share/tjsmart/Hematite/2019-Cluster-Defects
/export/data/share/tjsmart/Hematite/2019-Cluster-Defects

     Program PWSCF v.6.1 (svn rev. 13369) starts on  9Oct2019 at 12:23:43 

     This program is part of the open-source Quantum ESPRESSO suite
     for quantum simulation of materials; please cite
         "P. Giannozzi et al., J. Phys.:Condens. Matter 21 395502 (2009);
          URL http://www.quantum-espresso.org", 
     in publications or presentations arising from this work. More details at
     http://www.quantum-espresso.org/quote

     Parallel version (MPI), running on    64 processors
     K-points division:     npool     =       8
     R & G space division:  proc/nbgrp/npool/nimage =       8
     Reading input from relax.in

     Current dimensions of program PWSCF are:
     Max number of different atomic species (ntypx) = 10
     Max number of k-points (npk) =  40000
     Max angular momentum in pseudopotentials (lmaxx) =  3

     Subspace diagonalization in iterative solution of the eigenvalue problem:
     one sub-group per band group will be used
     scalapack distributed-memory algorithm (size of sub-group:  2*  2 procs)

 
     Parallelization info
     --------------------
     sticks:   dense  smooth     PW     G-vecs:    dense   smooth      PW
     Min         777     519    138                67649    36803    5096
     Max         778     520    139                67652    36806    5099
     Sum        6217    4153   1111               541199   294431   40789
 


     bravais-lattice index     =            0
     lattice parameter (alat)  =      19.3984  a.u.
     unit-cell volume          =    8616.2325 (a.u.)^3
     number of atoms/cell      =          120
     number of atomic types    =            4
     number of electrons       =      1194.00
     number of Kohn-Sham states=          716
     kinetic-energy cutoff     =      40.0000  Ry
     charge density cutoff     =     240.0000  Ry
     convergence threshold     =      1.0E-07
     mixing beta               =       0.3000
     number of iterations used =            8  plain     mixing
     Exchange-correlation      =  SLA  PW   PBX  PBC ( 1  4  3  4 0 0)
     nstep                     =           50


     celldm(1)=  19.398401  celldm(2)=   0.000000  celldm(3)=   0.000000
     celldm(4)=   0.000000  celldm(5)=   0.000000  celldm(6)=   0.000000

     crystal axes: (cart. coord. in units of alat)
               a(1) = (   1.000000   0.000000   0.000000 )  
               a(2) = (  -0.500000   0.866025   0.000000 )  
               a(3) = (   0.000000   0.000000   1.362978 )  

     reciprocal axes: (cart. coord. in units 2 pi/alat)
               b(1) = (  1.000000  0.577350  0.000000 )  
               b(2) = (  0.000000  1.154700  0.000000 )  
               b(3) = (  0.000000  0.000000  0.733687 )  


     PseudoPot. # 1 for O  read from file:
     /home/tjsmart/Pseudo/o_pbe_v1.2.uspp.F.UPF
     MD5 check sum: 734c27235a0248c51dbae37a1fbe46ec
     Pseudo is Ultrasoft + core correction, Zval =  6.0
     Generated by new atomic code, or converted to UPF format
     Using radial grid of  737 points,  5 beta functions with: 
                l(1) =   0
                l(2) =   0
                l(3) =   1
                l(4) =   1
                l(5) =   2
     Q(r) pseudized with  8 coefficients,  rinner =    0.900   0.900   0.900
                                                       0.900   0.900

     PseudoPot. # 2 for Fe read from file:
     /home/tjsmart/Pseudo/fe_pbe_v1.5.uspp.F.UPF
     MD5 check sum: a130daea23fe5165f5d574ae7f82ed95
     Pseudo is Ultrasoft + core correction, Zval = 16.0
     Generated by new atomic code, or converted to UPF format
     Using radial grid of  861 points,  6 beta functions with: 
                l(1) =   0
                l(2) =   0
                l(3) =   1
                l(4) =   1
                l(5) =   2
                l(6) =   2
     Q(r) pseudized with  8 coefficients,  rinner =    1.000   1.000   1.000
                                                       1.000   1.000

     PseudoPot. # 3 for Fe read from file:
     /home/tjsmart/Pseudo/fe_pbe_v1.5.uspp.F.UPF
     MD5 check sum: a130daea23fe5165f5d574ae7f82ed95
     Pseudo is Ultrasoft + core correction, Zval = 16.0
     Generated by new atomic code, or converted to UPF format
     Using radial grid of  861 points,  6 beta functions with: 
                l(1) =   0
                l(2) =   0
                l(3) =   1
                l(4) =   1
                l(5) =   2
                l(6) =   2
     Q(r) pseudized with  8 coefficients,  rinner =    1.000   1.000   1.000
                                                       1.000   1.000

     PseudoPot. # 4 for Sn read from file:
     /home/tjsmart/Pseudo/sn_pbe_v1.4.uspp.F.UPF
     MD5 check sum: 469debedee59599fedebd795477fea03
     Pseudo is Ultrasoft + core correction, Zval = 14.0
     Generated by new atomic code, or converted to UPF format
     Using radial grid of  891 points,  6 beta functions with: 
                l(1) =   0
                l(2) =   0
                l(3) =   1
                l(4) =   1
                l(5) =   2
                l(6) =   2
     Q(r) pseudized with  8 coefficients,  rinner =    1.350   1.350   1.350
                                                       1.350   1.350

     atomic species   valence    mass     pseudopotential
        O              6.00     1.00000     O ( 1.00)
        Fe1           16.00     1.00000     Fe( 1.00)
        Fe2           16.00     1.00000     Fe( 1.00)
        Sn            14.00     1.00000     Sn( 1.00)

     Starting magnetic structure 
     atomic species   magnetization
        O            0.000
        Fe1         -0.500
        Fe2          0.500
        Sn           0.000


     Simplified LDA+U calculation (l_max = 2) with parameters (eV):
     atomic species    L          U    alpha       J0     beta
        Fe1            2     4.3000   0.0000   0.0000   0.0000
        Fe2            2     4.3000   0.0000   0.0000   0.0000



     No symmetry found



   Cartesian axes

     site n.     atom                  positions (alat units)
         1           O   tau(   1) = (   0.1523815   0.2886640   1.2495852  )
         2           O   tau(   2) = (  -0.0763346   0.4205239   1.2496112  )
         3           O   tau(   3) = (   0.3263581   0.2758196   0.1128848  )
         4           O   tau(   4) = (   0.3259114   0.0122320   0.1137502  )
         5           O   tau(   5) = (   0.0978435   0.1445104   0.1138947  )
         6           O   tau(   6) = (  -0.0762278   0.1562951   1.2495287  )
         7           O   tau(   7) = (   0.1523990   0.0001367   0.3410438  )
         8           O   tau(   8) = (  -0.0776583   0.1294616   0.3404362  )
         9           O   tau(   9) = (   0.0714247   0.4207887   0.5679433  )
        10           O   tau(  10) = (   0.0758124   0.1568198   0.5681569  )
        11           O   tau(  11) = (  -0.1522934   0.2904536   0.5669680  )
        12           O   tau(  12) = (   0.1701691   0.3013885   0.3400180  )
        13           O   tau(  13) = (   0.4016471   0.1443461   0.7962596  )
        14           O   tau(  14) = (   0.1738737   0.2763598   0.7952509  )
        15           O   tau(  15) = (   0.0762432   0.1322394   1.0229003  )
        16           O   tau(  16) = (  -0.1734550   0.3014554   1.0230654  )
        17           O   tau(  17) = (   0.3471056   0.0000092   1.0229007  )
        18           O   tau(  18) = (   0.1737370   0.0129744   0.7959831  )
        19           Fe1 tau(  19) = (  -0.0003845   0.2879269   0.0284218  )
        20           Fe2 tau(  20) = (   0.0002279   0.0001453   0.1963924  )
        21           Fe1 tau(  21) = (   0.2499527   0.1440944   1.3328974  )
        22           Fe2 tau(  22) = (  -0.0001445  -0.0003453   1.1665235  )
        23           Fe1 tau(  23) = (   0.0033319  -0.0004621   0.4826083  )
        24           Fe2 tau(  24) = (   0.2480406   0.1412670   0.6555194  )
        25           Fe1 tau(  25) = (  -0.0067589   0.2851906   0.4237328  )
        26           Fe2 tau(  26) = (   0.2505919   0.1426300   0.2544715  )
        27           Fe1 tau(  27) = (   0.2499996   0.1447416   0.9396985  )
        28           Fe2 tau(  28) = (   0.0001286   0.2890048   1.1079738  )
        29           Fe1 tau(  29) = (   0.0016646   0.0030433   0.8839137  )
        30           Fe2 tau(  30) = (   0.0003250   0.2868688   0.7131436  )
        31           O   tau(  31) = (   0.6523862   0.2887502   1.2496936  )
        32           O   tau(  32) = (   0.4236188   0.4207112   1.2494448  )
        33           O   tau(  33) = (   0.8263055   0.2760173   0.1129506  )
        34           O   tau(  34) = (   0.8261363   0.0119077   0.1134435  )
        35           O   tau(  35) = (   0.5973330   0.1442840   0.1129467  )
        36           O   tau(  36) = (   0.4238278   0.1565282   1.2496242  )
        37           O   tau(  37) = (   0.6511899   0.0025974   0.3390138  )
        38           O   tau(  38) = (   0.4236212   0.1314048   0.3407957  )
        39           O   tau(  39) = (   0.5774162   0.4188811   0.5671370  )
        40           O   tau(  40) = (   0.5761549   0.1564532   0.5675295  )
        41           O   tau(  41) = (   0.3494328   0.2849078   0.5686819  )
        42           O   tau(  42) = (   0.6756531   0.3008870   0.3392654  )
        43           O   tau(  43) = (   0.9017068   0.1440456   0.7955588  )
        44           O   tau(  44) = (   0.6740193   0.2775719   0.7952876  )
        45           O   tau(  45) = (   0.5760214   0.1321805   1.0231620  )
        46           O   tau(  46) = (   0.3265247   0.3010663   1.0228518  )
        47           O   tau(  47) = (   0.8472376  -0.0003476   1.0219804  )
        48           O   tau(  48) = (   0.6704661   0.0176852   0.7954523  )
        49           Fe1 tau(  49) = (   0.5005419   0.2885665   0.0284935  )
        50           Fe2 tau(  50) = (   0.4998753  -0.0001253   0.1962472  )
        51           Fe1 tau(  51) = (   0.7498546   0.1441882   1.3327923  )
        52           Fe2 tau(  52) = (   0.5002433  -0.0000478   1.1666302  )
        53           Fe1 tau(  53) = (   0.4976174   0.0006695   0.4825244  )
        54           Fe2 tau(  54) = (   0.7492360   0.1521032   0.6525566  )
        55           Fe1 tau(  55) = (   0.5060707   0.2847359   0.4241094  )
        56           Fe2 tau(  56) = (   0.7501932   0.1449393   0.2523764  )
        57           Fe1 tau(  57) = (   0.7503766   0.1457520   0.9412907  )
        58           Fe2 tau(  58) = (   0.5001789   0.2883731   1.1080434  )
        59           Fe1 tau(  59) = (   0.4957436   0.0004498   0.8839674  )
        60           Fe2 tau(  60) = (   0.4999420   0.2878511   0.7134471  )
        61           O   tau(  61) = (  -0.0974534   0.7215637   1.2494665  )
        62           O   tau(  62) = (  -0.3261421   0.8535798   1.2494498  )
        63           O   tau(  63) = (   0.0764586   0.7088397   0.1140730  )
        64           O   tau(  64) = (   0.0757061   0.4453391   0.1125591  )
        65           O   tau(  65) = (  -0.1523286   0.5775755   0.1134805  )
        66           O   tau(  66) = (  -0.3262251   0.5898117   1.2495646  )
        67           O   tau(  67) = (  -0.0976524   0.4330083   0.3396652  )
        68           O   tau(  68) = (  -0.3260182   0.5651814   0.3400594  )
        69           O   tau(  69) = (  -0.1738743   0.8533659   0.5685511  )
        70           O   tau(  70) = (  -0.1758736   0.5900360   0.5675431  )
        71           O   tau(  71) = (  -0.4015532   0.7218144   0.5681905  )
        72           O   tau(  72) = (  -0.0755543   0.7339699   0.3412399  )
        73           O   tau(  73) = (   0.1509320   0.5732301   0.7945517  )
        74           O   tau(  74) = (  -0.0760519   0.7091980   0.7955010  )
        75           O   tau(  75) = (  -0.1741625   0.5651199   1.0229570  )
        76           O   tau(  76) = (  -0.4238223   0.7338268   1.0227490  )
        77           O   tau(  77) = (   0.0974829   0.4326513   1.0228222  )
        78           O   tau(  78) = (  -0.0764587   0.4449572   0.7956377  )
        79           Fe1 tau(  79) = (  -0.2499389   0.7216370   0.0285148  )
        80           Fe2 tau(  80) = (  -0.2501305   0.4327813   0.1958688  )
        81           Fe1 tau(  81) = (   0.0000138   0.5772576   1.3327936  )
        82           Fe2 tau(  82) = (  -0.2500774   0.4330010   1.1662283  )
        83           Fe1 tau(  83) = (  -0.2499588   0.4345910   0.4805111  )
        84           Fe2 tau(  84) = (  -0.0080152   0.5765526   0.6553547  )
        85           Fe1 tau(  85) = (  -0.2496367   0.7216010   0.4242549  )
        86           Fe2 tau(  86) = (  -0.0024855   0.5776088   0.2539949  )
        87           Fe1 tau(  87) = (  -0.0011005   0.5769598   0.9416018  )
        88           Fe2 tau(  88) = (  -0.2505268   0.7216565   1.1077386  )
        89           Fe1 tau(  89) = (  -0.2493331   0.4331145   0.8814327  )
        90           Fe2 tau(  90) = (  -0.2499442   0.7234419   0.7112931  )
        91           O   tau(  91) = (   0.4023356   0.7215547   1.2493484  )
        92           O   tau(  92) = (   0.1738180   0.8533792   1.2495863  )
        93           O   tau(  93) = (   0.5764967   0.7092040   0.1135142  )
        94           O   tau(  94) = (   0.5757009   0.4453405   0.1137361  )
        95           O   tau(  95) = (   0.3479324   0.5777587   0.1128736  )
        96           O   tau(  96) = (   0.1739583   0.5896333   1.2494996  )
        97           O   tau(  97) = (   0.4034848   0.4301374   0.3407521  )
        98           O   tau(  98) = (   0.1758763   0.5675211   0.3395857  )
        99           O   tau(  99) = (   0.3241676   0.8565369   0.5670407  )
       100           O   tau( 100) = (   0.3319701   0.5929833   0.5681019  )
       101           O   tau( 101) = (   0.0972163   0.7185451   0.5674628  )
       102           O   tau( 102) = (   0.4249059   0.7336053   0.3398530  )
       103           O   tau( 103) = (   0.6536214   0.5772483   0.7956561  )
       104           O   tau( 104) = (   0.4287130   0.7096898   0.7951864  )
       105           O   tau( 105) = (   0.3258230   0.5653378   1.0217240  )
       106           O   tau( 106) = (   0.0765326   0.7339573   1.0218980  )
       107           O   tau( 107) = (   0.5977062   0.4325107   1.0228630  )
       108           O   tau( 108) = (   0.4239575   0.4453579   0.7948552  )
       109           Fe1 tau( 109) = (   0.2497613   0.7221721   0.0284931  )
       110           Fe2 tau( 110) = (   0.2499431   0.4328823   0.1887751  )
       111           Fe1 tau( 111) = (   0.5001255   0.5774060   1.3328646  )
       112           Fe2 tau( 112) = (   0.2498055   0.4330509   1.1663152  )
       113           Sn  tau( 113) = (   0.2495114   0.4323362   0.4801850  )
       114           Fe2 tau( 114) = (   0.5106498   0.5739669   0.6551723  )
       115           Fe1 tau( 115) = (   0.2507427   0.7294457   0.4160756  )
       116           Fe2 tau( 116) = (   0.5018096   0.5781224   0.2540227  )
       117           Fe1 tau( 117) = (   0.5006184   0.5759893   0.9414274  )
       118           Fe2 tau( 118) = (   0.2499861   0.7215330   1.1078077  )
       119           Fe1 tau( 119) = (   0.2518364   0.4298140   0.8835553  )
       120           Sn  tau( 120) = (   0.2498814   0.7235139   0.7100427  )

     number of k points=     8  Methfessel-Paxton smearing, width (Ry)=  0.0050
                       cart. coord. in units 2pi/alat
        k(    1) = (   0.0000000   0.0000000   0.0000000), wk =   0.1250000
        k(    2) = (   0.0000000   0.0000000  -0.3668437), wk =   0.1250000
        k(    3) = (   0.0000000  -0.5773502   0.0000000), wk =   0.1250000
        k(    4) = (   0.0000000  -0.5773502  -0.3668437), wk =   0.1250000
        k(    5) = (   0.5000000  -0.2886751   0.0000000), wk =   0.1250000
        k(    6) = (  -0.5000000  -0.2886751   0.0000000), wk =   0.1250000
        k(    7) = (   0.5000000  -0.2886751  -0.3668437), wk =   0.1250000
        k(    8) = (  -0.5000000  -0.2886751  -0.3668437), wk =   0.1250000

     Dense  grid:   541199 G-vectors     FFT dimensions: (  96,  96, 135)

     Smooth grid:   294431 G-vectors     FFT dimensions: (  80,  80, 108)

     Estimated max dynamical RAM per process >     845.04MB

     Estimated total allocated dynamical RAM >   54082.57MB
     Generating pointlists ...
     new r_m :   0.0774 (alat units)  1.5017 (a.u.) for type    1
     new r_m :   0.0774 (alat units)  1.5017 (a.u.) for type    2
     new r_m :   0.0783 (alat units)  1.5197 (a.u.) for type    3
     new r_m :   0.0817 (alat units)  1.5856 (a.u.) for type    4

     Check: negative/imaginary core charge=   -0.000024    0.000000

     Initial potential from superposition of free atoms

     starting charge 1147.99954, renormalised to 1194.00000
     Number of +U iterations with fixed ns =  0
     Starting occupations:
 --- enter write_ns ---
 LDA+U parameters:
U( 2)     =  4.30000000
alpha( 2) =  0.00000000
U( 3)     =  4.30000000
alpha( 3) =  0.00000000
atom   19   Tr[ns(na)] (up, down, total) =   1.00000  5.00000  6.00000
   spin  1
    eigenvalues: 
  0.200  0.200  0.200  0.200  0.200
    eigenvectors:
  1.000  0.000  0.000  0.000  0.000
  0.000  1.000  0.000  0.000  0.000
  0.000  0.000  1.000  0.000  0.000
  0.000  0.000  0.000  1.000  0.000
  0.000  0.000  0.000  0.000  1.000
    occupations:
  0.200  0.000  0.000  0.000  0.000
  0.000  0.200  0.000  0.000  0.000
  0.000  0.000  0.200  0.000  0.000
  0.000  0.000  0.000  0.200  0.000
  0.000  0.000  0.000  0.000  0.200
   spin  2
    eigenvalues: 
  1.000  1.000  1.000  1.000  1.000
    eigenvectors:
  1.000  0.000  0.000  0.000  0.000
  0.000  1.000  0.000  0.000  0.000
  0.000  0.000  1.000  0.000  0.000
  0.000  0.000  0.000  1.000  0.000
  0.000  0.000  0.000  0.000  1.000
    occupations:
  1.000  0.000  0.000  0.000  0.000
  0.000  1.000  0.000  0.000  0.000
  0.000  0.000  1.000  0.000  0.000
  0.000  0.000  0.000  1.000  0.000
  0.000  0.000  0.000  0.000  1.000
atomic mag. moment =    -4.000000
atom   20   Tr[ns(na)] (up, down, total) =   5.00000  1.00000  6.00000
   spin  1
    eigenvalues: 
  1.000  1.000  1.000  1.000  1.000
    eigenvectors:
  1.000  0.000  0.000  0.000  0.000
  0.000  1.000  0.000  0.000  0.000
  0.000  0.000  1.000  0.000  0.000
  0.000  0.000  0.000  1.000  0.000
  0.000  0.000  0.000  0.000  1.000
    occupations:
  1.000  0.000  0.000  0.000  0.000
  0.000  1.000  0.000  0.000  0.000
  0.000  0.000  1.000  0.000  0.000
  0.000  0.000  0.000  1.000  0.000
  0.000  0.000  0.000  0.000  1.000
   spin  2
    eigenvalues: 
  0.200  0.200  0.200  0.200  0.200
    eigenvectors:
  1.000  0.000  0.000  0.000  0.000
  0.000  1.000  0.000  0.000  0.000
  0.000  0.000  1.000  0.000  0.000
  0.000  0.000  0.000  1.000  0.000
  0.000  0.000  0.000  0.000  1.000
    occupations:
  0.200  0.000  0.000  0.000  0.000
  0.000  0.200  0.000  0.000  0.000
  0.000  0.000  0.200  0.000  0.000
  0.000  0.000  0.000  0.200  0.000
  0.000  0.000  0.000  0.000  0.200
atomic mag. moment =     4.000000
atom   21   Tr[ns(na)] (up, down, total) =   1.00000  5.00000  6.00000
   spin  1
    eigenvalues: 
  0.200  0.200  0.200  0.200  0.200
    eigenvectors:
  1.000  0.000  0.000  0.000  0.000
  0.000  1.000  0.000  0.000  0.000
  0.000  0.000  1.000  0.000  0.000
  0.000  0.000  0.000  1.000  0.000
  0.000  0.000  0.000  0.000  1.000
    occupations:
  0.200  0.000  0.000  0.000  0.000
  0.000  0.200  0.000  0.000  0.000
  0.000  0.000  0.200  0.000  0.000
  0.000  0.000  0.000  0.200  0.000
  0.000  0.000  0.000  0.000  0.200
   spin  2
    eigenvalues: 
  1.000  1.000  1.000  1.000  1.000
    eigenvectors:
  1.000  0.000  0.000  0.000  0.000
  0.000  1.000  0.000  0.000  0.000
  0.000  0.000  1.000  0.000  0.000
  0.000  0.000  0.000  1.000  0.000
  0.000  0.000  0.000  0.000  1.000
    occupations:
  1.000  0.000  0.000  0.000  0.000
  0.000  1.000  0.000  0.000  0.000
  0.000  0.000  1.000  0.000  0.000
  0.000  0.000  0.000  1.000  0.000
  0.000  0.000  0.000  0.000  1.000
atomic mag. moment =    -4.000000
atom   22   Tr[ns(na)] (up, down, total) =   5.00000  1.00000  6.00000
   spin  1
    eigenvalues: 
  1.000  1.000  1.000  1.000  1.000
    eigenvectors:
  1.000  0.000  0.000  0.000  0.000
  0.000  1.000  0.000  0.000  0.000
  0.000  0.000  1.000  0.000  0.000
  0.000  0.000  0.000  1.000  0.000
  0.000  0.000  0.000  0.000  1.000
    occupations:
  1.000  0.000  0.000  0.000  0.000
  0.000  1.000  0.000  0.000  0.000
  0.000  0.000  1.000  0.000  0.000
  0.000  0.000  0.000  1.000  0.000
  0.000  0.000  0.000  0.000  1.000
   spin  2
    eigenvalues: 
  0.200  0.200  0.200  0.200  0.200
    eigenvectors:
  1.000  0.000  0.000  0.000  0.000
  0.000  1.000  0.000  0.000  0.000
  0.000  0.000  1.000  0.000  0.000
  0.000  0.000  0.000  1.000  0.000
  0.000  0.000  0.000  0.000  1.000
    occupations:
  0.200  0.000  0.000  0.000  0.000
  0.000  0.200  0.000  0.000  0.000
  0.000  0.000  0.200  0.000  0.000
  0.000  0.000  0.000  0.200  0.000
  0.000  0.000  0.000  0.000  0.200
atomic mag. moment =     4.000000
atom   23   Tr[ns(na)] (up, down, total) =   1.00000  5.00000  6.00000
   spin  1
    eigenvalues: 
  0.200  0.200  0.200  0.200  0.200
    eigenvectors:
  1.000  0.000  0.000  0.000  0.000
  0.000  1.000  0.000  0.000  0.000
  0.000  0.000  1.000  0.000  0.000
  0.000  0.000  0.000  1.000  0.000
  0.000  0.000  0.000  0.000  1.000
    occupations:
  0.200  0.000  0.000  0.000  0.000
  0.000  0.200  0.000  0.000  0.000
  0.000  0.000  0.200  0.000  0.000
  0.000  0.000  0.000  0.200  0.000
  0.000  0.000  0.000  0.000  0.200
   spin  2
    eigenvalues: 
  1.000  1.000  1.000  1.000  1.000
    eigenvectors:
  1.000  0.000  0.000  0.000  0.000
  0.000  1.000  0.000  0.000  0.000
  0.000  0.000  1.000  0.000  0.000
  0.000  0.000  0.000  1.000  0.000
  0.000  0.000  0.000  0.000  1.000
    occupations:
  1.000  0.000  0.000  0.000  0.000
  0.000  1.000  0.000  0.000  0.000
  0.000  0.000  1.000  0.000  0.000
  0.000  0.000  0.000  1.000  0.000
  0.000  0.000  0.000  0.000  1.000
atomic mag. moment =    -4.000000
atom   24   Tr[ns(na)] (up, down, total) =   5.00000  1.00000  6.00000
   spin  1
    eigenvalues: 
  1.000  1.000  1.000  1.000  1.000
    eigenvectors:
  1.000  0.000  0.000  0.000  0.000
  0.000  1.000  0.000  0.000  0.000
  0.000  0.000  1.000  0.000  0.000
  0.000  0.000  0.000  1.000  0.000
  0.000  0.000  0.000  0.000  1.000
    occupations:
  1.000  0.000  0.000  0.000  0.000
  0.000  1.000  0.000  0.000  0.000
  0.000  0.000  1.000  0.000  0.000
  0.000  0.000  0.000  1.000  0.000
  0.000  0.000  0.000  0.000  1.000
   spin  2
    eigenvalues: 
  0.200  0.200  0.200  0.200  0.200
    eigenvectors:
  1.000  0.000  0.000  0.000  0.000
  0.000  1.000  0.000  0.000  0.000
  0.000  0.000  1.000  0.000  0.000
  0.000  0.000  0.000  1.000  0.000
  0.000  0.000  0.000  0.000  1.000
    occupations:
  0.200  0.000  0.000  0.000  0.000
  0.000  0.200  0.000  0.000  0.000
  0.000  0.000  0.200  0.000  0.000
  0.000  0.000  0.000  0.200  0.000
  0.000  0.000  0.000  0.000  0.200
atomic mag. moment =     4.000000
atom   25   Tr[ns(na)] (up, down, total) =   1.00000  5.00000  6.00000
   spin  1
    eigenvalues: 
  0.200  0.200  0.200  0.200  0.200
    eigenvectors:
  1.000  0.000  0.000  0.000  0.000
  0.000  1.000  0.000  0.000  0.000
  0.000  0.000  1.000  0.000  0.000
  0.000  0.000  0.000  1.000  0.000
  0.000  0.000  0.000  0.000  1.000
    occupations:
  0.200  0.000  0.000  0.000  0.000
  0.000  0.200  0.000  0.000  0.000
  0.000  0.000  0.200  0.000  0.000
  0.000  0.000  0.000  0.200  0.000
  0.000  0.000  0.000  0.000  0.200
   spin  2
    eigenvalues: 
  1.000  1.000  1.000  1.000  1.000
    eigenvectors:
  1.000  0.000  0.000  0.000  0.000
  0.000  1.000  0.000  0.000  0.000
  0.000  0.000  1.000  0.000  0.000
  0.000  0.000  0.000  1.000  0.000
  0.000  0.000  0.000  0.000  1.000
    occupations:
  1.000  0.000  0.000  0.000  0.000
  0.000  1.000  0.000  0.000  0.000
  0.000  0.000  1.000  0.000  0.000
  0.000  0.000  0.000  1.000  0.000
  0.000  0.000  0.000  0.000  1.000
atomic mag. moment =    -4.000000
atom   26   Tr[ns(na)] (up, down, total) =   5.00000  1.00000  6.00000
   spin  1
    eigenvalues: 
  1.000  1.000  1.000  1.000  1.000
    eigenvectors:
  1.000  0.000  0.000  0.000  0.000
  0.000  1.000  0.000  0.000  0.000
  0.000  0.000  1.000  0.000  0.000
  0.000  0.000  0.000  1.000  0.000
  0.000  0.000  0.000  0.000  1.000
    occupations:
  1.000  0.000  0.000  0.000  0.000
  0.000  1.000  0.000  0.000  0.000
  0.000  0.000  1.000  0.000  0.000
  0.000  0.000  0.000  1.000  0.000
  0.000  0.000  0.000  0.000  1.000
   spin  2
    eigenvalues: 
  0.200  0.200  0.200  0.200  0.200
    eigenvectors:
  1.000  0.000  0.000  0.000  0.000
  0.000  1.000  0.000  0.000  0.000
  0.000  0.000  1.000  0.000  0.000
  0.000  0.000  0.000  1.000  0.000
  0.000  0.000  0.000  0.000  1.000
    occupations:
  0.200  0.000  0.000  0.000  0.000
  0.000  0.200  0.000  0.000  0.000
  0.000  0.000  0.200  0.000  0.000
  0.000  0.000  0.000  0.200  0.000
  0.000  0.000  0.000  0.000  0.200
atomic mag. moment =     4.000000
atom   27   Tr[ns(na)] (up, down, total) =   1.00000  5.00000  6.00000
   spin  1
    eigenvalues: 
  0.200  0.200  0.200  0.200  0.200
    eigenvectors:
  1.000  0.000  0.000  0.000  0.000
  0.000  1.000  0.000  0.000  0.000
  0.000  0.000  1.000  0.000  0.000
  0.000  0.000  0.000  1.000  0.000
  0.000  0.000  0.000  0.000  1.000
    occupations:
  0.200  0.000  0.000  0.000  0.000
  0.000  0.200  0.000  0.000  0.000
  0.000  0.000  0.200  0.000  0.000
  0.000  0.000  0.000  0.200  0.000
  0.000  0.000  0.000  0.000  0.200
   spin  2
    eigenvalues: 
  1.000  1.000  1.000  1.000  1.000
    eigenvectors:
  1.000  0.000  0.000  0.000  0.000
  0.000  1.000  0.000  0.000  0.000
  0.000  0.000  1.000  0.000  0.000
  0.000  0.000  0.000  1.000  0.000
  0.000  0.000  0.000  0.000  1.000
    occupations:
  1.000  0.000  0.000  0.000  0.000
  0.000  1.000  0.000  0.000  0.000
  0.000  0.000  1.000  0.000  0.000
  0.000  0.000  0.000  1.000  0.000
  0.000  0.000  0.000  0.000  1.000
atomic mag. moment =    -4.000000
atom   28   Tr[ns(na)] (up, down, total) =   5.00000  1.00000  6.00000
   spin  1
    eigenvalues: 
  1.000  1.000  1.000  1.000  1.000
    eigenvectors:
  1.000  0.000  0.000  0.000  0.000
  0.000  1.000  0.000  0.000  0.000
  0.000  0.000  1.000  0.000  0.000
  0.000  0.000  0.000  1.000  0.000
  0.000  0.000  0.000  0.000  1.000
    occupations:
  1.000  0.000  0.000  0.000  0.000
  0.000  1.000  0.000  0.000  0.000
  0.000  0.000  1.000  0.000  0.000
  0.000  0.000  0.000  1.000  0.000
  0.000  0.000  0.000  0.000  1.000
   spin  2
    eigenvalues: 
  0.200  0.200  0.200  0.200  0.200
    eigenvectors:
  1.000  0.000  0.000  0.000  0.000
  0.000  1.000  0.000  0.000  0.000
  0.000  0.000  1.000  0.000  0.000
  0.000  0.000  0.000  1.000  0.000
  0.000  0.000  0.000  0.000  1.000
    occupations:
  0.200  0.000  0.000  0.000  0.000
  0.000  0.200  0.000  0.000  0.000
  0.000  0.000  0.200  0.000  0.000
  0.000  0.000  0.000  0.200  0.000
  0.000  0.000  0.000  0.000  0.200
atomic mag. moment =     4.000000
atom   29   Tr[ns(na)] (up, down, total) =   1.00000  5.00000  6.00000
   spin  1
    eigenvalues: 
  0.200  0.200  0.200  0.200  0.200
    eigenvectors:
  1.000  0.000  0.000  0.000  0.000
  0.000  1.000  0.000  0.000  0.000
  0.000  0.000  1.000  0.000  0.000
  0.000  0.000  0.000  1.000  0.000
  0.000  0.000  0.000  0.000  1.000
    occupations:
  0.200  0.000  0.000  0.000  0.000
  0.000  0.200  0.000  0.000  0.000
  0.000  0.000  0.200  0.000  0.000
  0.000  0.000  0.000  0.200  0.000
  0.000  0.000  0.000  0.000  0.200
   spin  2
    eigenvalues: 
  1.000  1.000  1.000  1.000  1.000
    eigenvectors:
  1.000  0.000  0.000  0.000  0.000
  0.000  1.000  0.000  0.000  0.000
  0.000  0.000  1.000  0.000  0.000
  0.000  0.000  0.000  1.000  0.000
  0.000  0.000  0.000  0.000  1.000
    occupations:
  1.000  0.000  0.000  0.000  0.000
  0.000  1.000  0.000  0.000  0.000
  0.000  0.000  1.000  0.000  0.000
  0.000  0.000  0.000  1.000  0.000
  0.000  0.000  0.000  0.000  1.000
atomic mag. moment =    -4.000000
atom   30   Tr[ns(na)] (up, down, total) =   5.00000  1.00000  6.00000
   spin  1
    eigenvalues: 
  1.000  1.000  1.000  1.000  1.000
    eigenvectors:
  1.000  0.000  0.000  0.000  0.000
  0.000  1.000  0.000  0.000  0.000
  0.000  0.000  1.000  0.000  0.000
  0.000  0.000  0.000  1.000  0.000
  0.000  0.000  0.000  0.000  1.000
    occupations:
  1.000  0.000  0.000  0.000  0.000
  0.000  1.000  0.000  0.000  0.000
  0.000  0.000  1.000  0.000  0.000
  0.000  0.000  0.000  1.000  0.000
  0.000  0.000  0.000  0.000  1.000
   spin  2
    eigenvalues: 
  0.200  0.200  0.200  0.200  0.200
    eigenvectors:
  1.000  0.000  0.000  0.000  0.000
  0.000  1.000  0.000  0.000  0.000
  0.000  0.000  1.000  0.000  0.000
  0.000  0.000  0.000  1.000  0.000
  0.000  0.000  0.000  0.000  1.000
    occupations:
  0.200  0.000  0.000  0.000  0.000
  0.000  0.200  0.000  0.000  0.000
  0.000  0.000  0.200  0.000  0.000
  0.000  0.000  0.000  0.200  0.000
  0.000  0.000  0.000  0.000  0.200
atomic mag. moment =     4.000000
atom   49   Tr[ns(na)] (up, down, total) =   1.00000  5.00000  6.00000
   spin  1
    eigenvalues: 
  0.200  0.200  0.200  0.200  0.200
    eigenvectors:
  1.000  0.000  0.000  0.000  0.000
  0.000  1.000  0.000  0.000  0.000
  0.000  0.000  1.000  0.000  0.000
  0.000  0.000  0.000  1.000  0.000
  0.000  0.000  0.000  0.000  1.000
    occupations:
  0.200  0.000  0.000  0.000  0.000
  0.000  0.200  0.000  0.000  0.000
  0.000  0.000  0.200  0.000  0.000
  0.000  0.000  0.000  0.200  0.000
  0.000  0.000  0.000  0.000  0.200
   spin  2
    eigenvalues: 
  1.000  1.000  1.000  1.000  1.000
    eigenvectors:
  1.000  0.000  0.000  0.000  0.000
  0.000  1.000  0.000  0.000  0.000
  0.000  0.000  1.000  0.000  0.000
  0.000  0.000  0.000  1.000  0.000
  0.000  0.000  0.000  0.000  1.000
    occupations:
  1.000  0.000  0.000  0.000  0.000
  0.000  1.000  0.000  0.000  0.000
  0.000  0.000  1.000  0.000  0.000
  0.000  0.000  0.000  1.000  0.000
  0.000  0.000  0.000  0.000  1.000
atomic mag. moment =    -4.000000
atom   50   Tr[ns(na)] (up, down, total) =   5.00000  1.00000  6.00000
   spin  1
    eigenvalues: 
  1.000  1.000  1.000  1.000  1.000
    eigenvectors:
  1.000  0.000  0.000  0.000  0.000
  0.000  1.000  0.000  0.000  0.000
  0.000  0.000  1.000  0.000  0.000
  0.000  0.000  0.000  1.000  0.000
  0.000  0.000  0.000  0.000  1.000
    occupations:
  1.000  0.000  0.000  0.000  0.000
  0.000  1.000  0.000  0.000  0.000
  0.000  0.000  1.000  0.000  0.000
  0.000  0.000  0.000  1.000  0.000
  0.000  0.000  0.000  0.000  1.000
   spin  2
    eigenvalues: 
  0.200  0.200  0.200  0.200  0.200
    eigenvectors:
  1.000  0.000  0.000  0.000  0.000
  0.000  1.000  0.000  0.000  0.000
  0.000  0.000  1.000  0.000  0.000
  0.000  0.000  0.000  1.000  0.000
  0.000  0.000  0.000  0.000  1.000
    occupations:
  0.200  0.000  0.000  0.000  0.000
  0.000  0.200  0.000  0.000  0.000
  0.000  0.000  0.200  0.000  0.000
  0.000  0.000  0.000  0.200  0.000
  0.000  0.000  0.000  0.000  0.200
atomic mag. moment =     4.000000
atom   51   Tr[ns(na)] (up, down, total) =   1.00000  5.00000  6.00000
   spin  1
    eigenvalues: 
  0.200  0.200  0.200  0.200  0.200
    eigenvectors:
  1.000  0.000  0.000  0.000  0.000
  0.000  1.000  0.000  0.000  0.000
  0.000  0.000  1.000  0.000  0.000
  0.000  0.000  0.000  1.000  0.000
  0.000  0.000  0.000  0.000  1.000
    occupations:
  0.200  0.000  0.000  0.000  0.000
  0.000  0.200  0.000  0.000  0.000
  0.000  0.000  0.200  0.000  0.000
  0.000  0.000  0.000  0.200  0.000
  0.000  0.000  0.000  0.000  0.200
   spin  2
    eigenvalues: 
  1.000  1.000  1.000  1.000  1.000
    eigenvectors:
  1.000  0.000  0.000  0.000  0.000
  0.000  1.000  0.000  0.000  0.000
  0.000  0.000  1.000  0.000  0.000
  0.000  0.000  0.000  1.000  0.000
  0.000  0.000  0.000  0.000  1.000
    occupations:
  1.000  0.000  0.000  0.000  0.000
  0.000  1.000  0.000  0.000  0.000
  0.000  0.000  1.000  0.000  0.000
  0.000  0.000  0.000  1.000  0.000
  0.000  0.000  0.000  0.000  1.000
atomic mag. moment =    -4.000000
atom   52   Tr[ns(na)] (up, down, total) =   5.00000  1.00000  6.00000
   spin  1
    eigenvalues: 
  1.000  1.000  1.000  1.000  1.000
    eigenvectors:
  1.000  0.000  0.000  0.000  0.000
  0.000  1.000  0.000  0.000  0.000
  0.000  0.000  1.000  0.000  0.000
  0.000  0.000  0.000  1.000  0.000
  0.000  0.000  0.000  0.000  1.000
    occupations:
  1.000  0.000  0.000  0.000  0.000
  0.000  1.000  0.000  0.000  0.000
  0.000  0.000  1.000  0.000  0.000
  0.000  0.000  0.000  1.000  0.000
  0.000  0.000  0.000  0.000  1.000
   spin  2
    eigenvalues: 
  0.200  0.200  0.200  0.200  0.200
    eigenvectors:
  1.000  0.000  0.000  0.000  0.000
  0.000  1.000  0.000  0.000  0.000
  0.000  0.000  1.000  0.000  0.000
  0.000  0.000  0.000  1.000  0.000
  0.000  0.000  0.000  0.000  1.000
    occupations:
  0.200  0.000  0.000  0.000  0.000
  0.000  0.200  0.000  0.000  0.000
  0.000  0.000  0.200  0.000  0.000
  0.000  0.000  0.000  0.200  0.000
  0.000  0.000  0.000  0.000  0.200
atomic mag. moment =     4.000000
atom   53   Tr[ns(na)] (up, down, total) =   1.00000  5.00000  6.00000
   spin  1
    eigenvalues: 
  0.200  0.200  0.200  0.200  0.200
    eigenvectors:
  1.000  0.000  0.000  0.000  0.000
  0.000  1.000  0.000  0.000  0.000
  0.000  0.000  1.000  0.000  0.000
  0.000  0.000  0.000  1.000  0.000
  0.000  0.000  0.000  0.000  1.000
    occupations:
  0.200  0.000  0.000  0.000  0.000
  0.000  0.200  0.000  0.000  0.000
  0.000  0.000  0.200  0.000  0.000
  0.000  0.000  0.000  0.200  0.000
  0.000  0.000  0.000  0.000  0.200
   spin  2
    eigenvalues: 
  1.000  1.000  1.000  1.000  1.000
    eigenvectors:
  1.000  0.000  0.000  0.000  0.000
  0.000  1.000  0.000  0.000  0.000
  0.000  0.000  1.000  0.000  0.000
  0.000  0.000  0.000  1.000  0.000
  0.000  0.000  0.000  0.000  1.000
    occupations:
  1.000  0.000  0.000  0.000  0.000
  0.000  1.000  0.000  0.000  0.000
  0.000  0.000  1.000  0.000  0.000
  0.000  0.000  0.000  1.000  0.000
  0.000  0.000  0.000  0.000  1.000
atomic mag. moment =    -4.000000
atom   54   Tr[ns(na)] (up, down, total) =   5.00000  1.00000  6.00000
   spin  1
    eigenvalues: 
  1.000  1.000  1.000  1.000  1.000
    eigenvectors:
  1.000  0.000  0.000  0.000  0.000
  0.000  1.000  0.000  0.000  0.000
  0.000  0.000  1.000  0.000  0.000
  0.000  0.000  0.000  1.000  0.000
  0.000  0.000  0.000  0.000  1.000
    occupations:
  1.000  0.000  0.000  0.000  0.000
  0.000  1.000  0.000  0.000  0.000
  0.000  0.000  1.000  0.000  0.000
  0.000  0.000  0.000  1.000  0.000
  0.000  0.000  0.000  0.000  1.000
   spin  2
    eigenvalues: 
  0.200  0.200  0.200  0.200  0.200
    eigenvectors:
  1.000  0.000  0.000  0.000  0.000
  0.000  1.000  0.000  0.000  0.000
  0.000  0.000  1.000  0.000  0.000
  0.000  0.000  0.000  1.000  0.000
  0.000  0.000  0.000  0.000  1.000
    occupations:
  0.200  0.000  0.000  0.000  0.000
  0.000  0.200  0.000  0.000  0.000
  0.000  0.000  0.200  0.000  0.000
  0.000  0.000  0.000  0.200  0.000
  0.000  0.000  0.000  0.000  0.200
atomic mag. moment =     4.000000
atom   55   Tr[ns(na)] (up, down, total) =   1.00000  5.00000  6.00000
   spin  1
    eigenvalues: 
  0.200  0.200  0.200  0.200  0.200
    eigenvectors:
  1.000  0.000  0.000  0.000  0.000
  0.000  1.000  0.000  0.000  0.000
  0.000  0.000  1.000  0.000  0.000
  0.000  0.000  0.000  1.000  0.000
  0.000  0.000  0.000  0.000  1.000
    occupations:
  0.200  0.000  0.000  0.000  0.000
  0.000  0.200  0.000  0.000  0.000
  0.000  0.000  0.200  0.000  0.000
  0.000  0.000  0.000  0.200  0.000
  0.000  0.000  0.000  0.000  0.200
   spin  2
    eigenvalues: 
  1.000  1.000  1.000  1.000  1.000
    eigenvectors:
  1.000  0.000  0.000  0.000  0.000
  0.000  1.000  0.000  0.000  0.000
  0.000  0.000  1.000  0.000  0.000
  0.000  0.000  0.000  1.000  0.000
  0.000  0.000  0.000  0.000  1.000
    occupations:
  1.000  0.000  0.000  0.000  0.000
  0.000  1.000  0.000  0.000  0.000
  0.000  0.000  1.000  0.000  0.000
  0.000  0.000  0.000  1.000  0.000
  0.000  0.000  0.000  0.000  1.000
atomic mag. moment =    -4.000000
atom   56   Tr[ns(na)] (up, down, total) =   5.00000  1.00000  6.00000
   spin  1
    eigenvalues: 
  1.000  1.000  1.000  1.000  1.000
    eigenvectors:
  1.000  0.000  0.000  0.000  0.000
  0.000  1.000  0.000  0.000  0.000
  0.000  0.000  1.000  0.000  0.000
  0.000  0.000  0.000  1.000  0.000
  0.000  0.000  0.000  0.000  1.000
    occupations:
  1.000  0.000  0.000  0.000  0.000
  0.000  1.000  0.000  0.000  0.000
  0.000  0.000  1.000  0.000  0.000
  0.000  0.000  0.000  1.000  0.000
  0.000  0.000  0.000  0.000  1.000
   spin  2
    eigenvalues: 
  0.200  0.200  0.200  0.200  0.200
    eigenvectors:
  1.000  0.000  0.000  0.000  0.000
  0.000  1.000  0.000  0.000  0.000
  0.000  0.000  1.000  0.000  0.000
  0.000  0.000  0.000  1.000  0.000
  0.000  0.000  0.000  0.000  1.000
    occupations:
  0.200  0.000  0.000  0.000  0.000
  0.000  0.200  0.000  0.000  0.000
  0.000  0.000  0.200  0.000  0.000
  0.000  0.000  0.000  0.200  0.000
  0.000  0.000  0.000  0.000  0.200
atomic mag. moment =     4.000000
atom   57   Tr[ns(na)] (up, down, total) =   1.00000  5.00000  6.00000
   spin  1
    eigenvalues: 
  0.200  0.200  0.200  0.200  0.200
    eigenvectors:
  1.000  0.000  0.000  0.000  0.000
  0.000  1.000  0.000  0.000  0.000
  0.000  0.000  1.000  0.000  0.000
  0.000  0.000  0.000  1.000  0.000
  0.000  0.000  0.000  0.000  1.000
    occupations:
  0.200  0.000  0.000  0.000  0.000
  0.000  0.200  0.000  0.000  0.000
  0.000  0.000  0.200  0.000  0.000
  0.000  0.000  0.000  0.200  0.000
  0.000  0.000  0.000  0.000  0.200
   spin  2
    eigenvalues: 
  1.000  1.000  1.000  1.000  1.000
    eigenvectors:
  1.000  0.000  0.000  0.000  0.000
  0.000  1.000  0.000  0.000  0.000
  0.000  0.000  1.000  0.000  0.000
  0.000  0.000  0.000  1.000  0.000
  0.000  0.000  0.000  0.000  1.000
    occupations:
  1.000  0.000  0.000  0.000  0.000
  0.000  1.000  0.000  0.000  0.000
  0.000  0.000  1.000  0.000  0.000
  0.000  0.000  0.000  1.000  0.000
  0.000  0.000  0.000  0.000  1.000
atomic mag. moment =    -4.000000
atom   58   Tr[ns(na)] (up, down, total) =   5.00000  1.00000  6.00000
   spin  1
    eigenvalues: 
  1.000  1.000  1.000  1.000  1.000
    eigenvectors:
  1.000  0.000  0.000  0.000  0.000
  0.000  1.000  0.000  0.000  0.000
  0.000  0.000  1.000  0.000  0.000
  0.000  0.000  0.000  1.000  0.000
  0.000  0.000  0.000  0.000  1.000
    occupations:
  1.000  0.000  0.000  0.000  0.000
  0.000  1.000  0.000  0.000  0.000
  0.000  0.000  1.000  0.000  0.000
  0.000  0.000  0.000  1.000  0.000
  0.000  0.000  0.000  0.000  1.000
   spin  2
    eigenvalues: 
  0.200  0.200  0.200  0.200  0.200
    eigenvectors:
  1.000  0.000  0.000  0.000  0.000
  0.000  1.000  0.000  0.000  0.000
  0.000  0.000  1.000  0.000  0.000
  0.000  0.000  0.000  1.000  0.000
  0.000  0.000  0.000  0.000  1.000
    occupations:
  0.200  0.000  0.000  0.000  0.000
  0.000  0.200  0.000  0.000  0.000
  0.000  0.000  0.200  0.000  0.000
  0.000  0.000  0.000  0.200  0.000
  0.000  0.000  0.000  0.000  0.200
atomic mag. moment =     4.000000
atom   59   Tr[ns(na)] (up, down, total) =   1.00000  5.00000  6.00000
   spin  1
    eigenvalues: 
  0.200  0.200  0.200  0.200  0.200
    eigenvectors:
  1.000  0.000  0.000  0.000  0.000
  0.000  1.000  0.000  0.000  0.000
  0.000  0.000  1.000  0.000  0.000
  0.000  0.000  0.000  1.000  0.000
  0.000  0.000  0.000  0.000  1.000
    occupations:
  0.200  0.000  0.000  0.000  0.000
  0.000  0.200  0.000  0.000  0.000
  0.000  0.000  0.200  0.000  0.000
  0.000  0.000  0.000  0.200  0.000
  0.000  0.000  0.000  0.000  0.200
   spin  2
    eigenvalues: 
  1.000  1.000  1.000  1.000  1.000
    eigenvectors:
  1.000  0.000  0.000  0.000  0.000
  0.000  1.000  0.000  0.000  0.000
  0.000  0.000  1.000  0.000  0.000
  0.000  0.000  0.000  1.000  0.000
  0.000  0.000  0.000  0.000  1.000
    occupations:
  1.000  0.000  0.000  0.000  0.000
  0.000  1.000  0.000  0.000  0.000
  0.000  0.000  1.000  0.000  0.000
  0.000  0.000  0.000  1.000  0.000
  0.000  0.000  0.000  0.000  1.000
atomic mag. moment =    -4.000000
atom   60   Tr[ns(na)] (up, down, total) =   5.00000  1.00000  6.00000
   spin  1
    eigenvalues: 
  1.000  1.000  1.000  1.000  1.000
    eigenvectors:
  1.000  0.000  0.000  0.000  0.000
  0.000  1.000  0.000  0.000  0.000
  0.000  0.000  1.000  0.000  0.000
  0.000  0.000  0.000  1.000  0.000
  0.000  0.000  0.000  0.000  1.000
    occupations:
  1.000  0.000  0.000  0.000  0.000
  0.000  1.000  0.000  0.000  0.000
  0.000  0.000  1.000  0.000  0.000
  0.000  0.000  0.000  1.000  0.000
  0.000  0.000  0.000  0.000  1.000
   spin  2
    eigenvalues: 
  0.200  0.200  0.200  0.200  0.200
    eigenvectors:
  1.000  0.000  0.000  0.000  0.000
  0.000  1.000  0.000  0.000  0.000
  0.000  0.000  1.000  0.000  0.000
  0.000  0.000  0.000  1.000  0.000
  0.000  0.000  0.000  0.000  1.000
    occupations:
  0.200  0.000  0.000  0.000  0.000
  0.000  0.200  0.000  0.000  0.000
  0.000  0.000  0.200  0.000  0.000
  0.000  0.000  0.000  0.200  0.000
  0.000  0.000  0.000  0.000  0.200
atomic mag. moment =     4.000000
atom   79   Tr[ns(na)] (up, down, total) =   1.00000  5.00000  6.00000
   spin  1
    eigenvalues: 
  0.200  0.200  0.200  0.200  0.200
    eigenvectors:
  1.000  0.000  0.000  0.000  0.000
  0.000  1.000  0.000  0.000  0.000
  0.000  0.000  1.000  0.000  0.000
  0.000  0.000  0.000  1.000  0.000
  0.000  0.000  0.000  0.000  1.000
    occupations:
  0.200  0.000  0.000  0.000  0.000
  0.000  0.200  0.000  0.000  0.000
  0.000  0.000  0.200  0.000  0.000
  0.000  0.000  0.000  0.200  0.000
  0.000  0.000  0.000  0.000  0.200
   spin  2
    eigenvalues: 
  1.000  1.000  1.000  1.000  1.000
    eigenvectors:
  1.000  0.000  0.000  0.000  0.000
  0.000  1.000  0.000  0.000  0.000
  0.000  0.000  1.000  0.000  0.000
  0.000  0.000  0.000  1.000  0.000
  0.000  0.000  0.000  0.000  1.000
    occupations:
  1.000  0.000  0.000  0.000  0.000
  0.000  1.000  0.000  0.000  0.000
  0.000  0.000  1.000  0.000  0.000
  0.000  0.000  0.000  1.000  0.000
  0.000  0.000  0.000  0.000  1.000
atomic mag. moment =    -4.000000
atom   80   Tr[ns(na)] (up, down, total) =   5.00000  1.00000  6.00000
   spin  1
    eigenvalues: 
  1.000  1.000  1.000  1.000  1.000
    eigenvectors:
  1.000  0.000  0.000  0.000  0.000
  0.000  1.000  0.000  0.000  0.000
  0.000  0.000  1.000  0.000  0.000
  0.000  0.000  0.000  1.000  0.000
  0.000  0.000  0.000  0.000  1.000
    occupations:
  1.000  0.000  0.000  0.000  0.000
  0.000  1.000  0.000  0.000  0.000
  0.000  0.000  1.000  0.000  0.000
  0.000  0.000  0.000  1.000  0.000
  0.000  0.000  0.000  0.000  1.000
   spin  2
    eigenvalues: 
  0.200  0.200  0.200  0.200  0.200
    eigenvectors:
  1.000  0.000  0.000  0.000  0.000
  0.000  1.000  0.000  0.000  0.000
  0.000  0.000  1.000  0.000  0.000
  0.000  0.000  0.000  1.000  0.000
  0.000  0.000  0.000  0.000  1.000
    occupations:
  0.200  0.000  0.000  0.000  0.000
  0.000  0.200  0.000  0.000  0.000
  0.000  0.000  0.200  0.000  0.000
  0.000  0.000  0.000  0.200  0.000
  0.000  0.000  0.000  0.000  0.200
atomic mag. moment =     4.000000
atom   81   Tr[ns(na)] (up, down, total) =   1.00000  5.00000  6.00000
   spin  1
    eigenvalues: 
  0.200  0.200  0.200  0.200  0.200
    eigenvectors:
  1.000  0.000  0.000  0.000  0.000
  0.000  1.000  0.000  0.000  0.000
  0.000  0.000  1.000  0.000  0.000
  0.000  0.000  0.000  1.000  0.000
  0.000  0.000  0.000  0.000  1.000
    occupations:
  0.200  0.000  0.000  0.000  0.000
  0.000  0.200  0.000  0.000  0.000
  0.000  0.000  0.200  0.000  0.000
  0.000  0.000  0.000  0.200  0.000
  0.000  0.000  0.000  0.000  0.200
   spin  2
    eigenvalues: 
  1.000  1.000  1.000  1.000  1.000
    eigenvectors:
  1.000  0.000  0.000  0.000  0.000
  0.000  1.000  0.000  0.000  0.000
  0.000  0.000  1.000  0.000  0.000
  0.000  0.000  0.000  1.000  0.000
  0.000  0.000  0.000  0.000  1.000
    occupations:
  1.000  0.000  0.000  0.000  0.000
  0.000  1.000  0.000  0.000  0.000
  0.000  0.000  1.000  0.000  0.000
  0.000  0.000  0.000  1.000  0.000
  0.000  0.000  0.000  0.000  1.000
atomic mag. moment =    -4.000000
atom   82   Tr[ns(na)] (up, down, total) =   5.00000  1.00000  6.00000
   spin  1
    eigenvalues: 
  1.000  1.000  1.000  1.000  1.000
    eigenvectors:
  1.000  0.000  0.000  0.000  0.000
  0.000  1.000  0.000  0.000  0.000
  0.000  0.000  1.000  0.000  0.000
  0.000  0.000  0.000  1.000  0.000
  0.000  0.000  0.000  0.000  1.000
    occupations:
  1.000  0.000  0.000  0.000  0.000
  0.000  1.000  0.000  0.000  0.000
  0.000  0.000  1.000  0.000  0.000
  0.000  0.000  0.000  1.000  0.000
  0.000  0.000  0.000  0.000  1.000
   spin  2
    eigenvalues: 
  0.200  0.200  0.200  0.200  0.200
    eigenvectors:
  1.000  0.000  0.000  0.000  0.000
  0.000  1.000  0.000  0.000  0.000
  0.000  0.000  1.000  0.000  0.000
  0.000  0.000  0.000  1.000  0.000
  0.000  0.000  0.000  0.000  1.000
    occupations:
  0.200  0.000  0.000  0.000  0.000
  0.000  0.200  0.000  0.000  0.000
  0.000  0.000  0.200  0.000  0.000
  0.000  0.000  0.000  0.200  0.000
  0.000  0.000  0.000  0.000  0.200
atomic mag. moment =     4.000000
atom   83   Tr[ns(na)] (up, down, total) =   1.00000  5.00000  6.00000
   spin  1
    eigenvalues: 
  0.200  0.200  0.200  0.200  0.200
    eigenvectors:
  1.000  0.000  0.000  0.000  0.000
  0.000  1.000  0.000  0.000  0.000
  0.000  0.000  1.000  0.000  0.000
  0.000  0.000  0.000  1.000  0.000
  0.000  0.000  0.000  0.000  1.000
    occupations:
  0.200  0.000  0.000  0.000  0.000
  0.000  0.200  0.000  0.000  0.000
  0.000  0.000  0.200  0.000  0.000
  0.000  0.000  0.000  0.200  0.000
  0.000  0.000  0.000  0.000  0.200
   spin  2
    eigenvalues: 
  1.000  1.000  1.000  1.000  1.000
    eigenvectors:
  1.000  0.000  0.000  0.000  0.000
  0.000  1.000  0.000  0.000  0.000
  0.000  0.000  1.000  0.000  0.000
  0.000  0.000  0.000  1.000  0.000
  0.000  0.000  0.000  0.000  1.000
    occupations:
  1.000  0.000  0.000  0.000  0.000
  0.000  1.000  0.000  0.000  0.000
  0.000  0.000  1.000  0.000  0.000
  0.000  0.000  0.000  1.000  0.000
  0.000  0.000  0.000  0.000  1.000
atomic mag. moment =    -4.000000
atom   84   Tr[ns(na)] (up, down, total) =   5.00000  1.00000  6.00000
   spin  1
    eigenvalues: 
  1.000  1.000  1.000  1.000  1.000
    eigenvectors:
  1.000  0.000  0.000  0.000  0.000
  0.000  1.000  0.000  0.000  0.000
  0.000  0.000  1.000  0.000  0.000
  0.000  0.000  0.000  1.000  0.000
  0.000  0.000  0.000  0.000  1.000
    occupations:
  1.000  0.000  0.000  0.000  0.000
  0.000  1.000  0.000  0.000  0.000
  0.000  0.000  1.000  0.000  0.000
  0.000  0.000  0.000  1.000  0.000
  0.000  0.000  0.000  0.000  1.000
   spin  2
    eigenvalues: 
  0.200  0.200  0.200  0.200  0.200
    eigenvectors:
  1.000  0.000  0.000  0.000  0.000
  0.000  1.000  0.000  0.000  0.000
  0.000  0.000  1.000  0.000  0.000
  0.000  0.000  0.000  1.000  0.000
  0.000  0.000  0.000  0.000  1.000
    occupations:
  0.200  0.000  0.000  0.000  0.000
  0.000  0.200  0.000  0.000  0.000
  0.000  0.000  0.200  0.000  0.000
  0.000  0.000  0.000  0.200  0.000
  0.000  0.000  0.000  0.000  0.200
atomic mag. moment =     4.000000
atom   85   Tr[ns(na)] (up, down, total) =   1.00000  5.00000  6.00000
   spin  1
    eigenvalues: 
  0.200  0.200  0.200  0.200  0.200
    eigenvectors:
  1.000  0.000  0.000  0.000  0.000
  0.000  1.000  0.000  0.000  0.000
  0.000  0.000  1.000  0.000  0.000
  0.000  0.000  0.000  1.000  0.000
  0.000  0.000  0.000  0.000  1.000
    occupations:
  0.200  0.000  0.000  0.000  0.000
  0.000  0.200  0.000  0.000  0.000
  0.000  0.000  0.200  0.000  0.000
  0.000  0.000  0.000  0.200  0.000
  0.000  0.000  0.000  0.000  0.200
   spin  2
    eigenvalues: 
  1.000  1.000  1.000  1.000  1.000
    eigenvectors:
  1.000  0.000  0.000  0.000  0.000
  0.000  1.000  0.000  0.000  0.000
  0.000  0.000  1.000  0.000  0.000
  0.000  0.000  0.000  1.000  0.000
  0.000  0.000  0.000  0.000  1.000
    occupations:
  1.000  0.000  0.000  0.000  0.000
  0.000  1.000  0.000  0.000  0.000
  0.000  0.000  1.000  0.000  0.000
  0.000  0.000  0.000  1.000  0.000
  0.000  0.000  0.000  0.000  1.000
atomic mag. moment =    -4.000000
atom   86   Tr[ns(na)] (up, down, total) =   5.00000  1.00000  6.00000
   spin  1
    eigenvalues: 
  1.000  1.000  1.000  1.000  1.000
    eigenvectors:
  1.000  0.000  0.000  0.000  0.000
  0.000  1.000  0.000  0.000  0.000
  0.000  0.000  1.000  0.000  0.000
  0.000  0.000  0.000  1.000  0.000
  0.000  0.000  0.000  0.000  1.000
    occupations:
  1.000  0.000  0.000  0.000  0.000
  0.000  1.000  0.000  0.000  0.000
  0.000  0.000  1.000  0.000  0.000
  0.000  0.000  0.000  1.000  0.000
  0.000  0.000  0.000  0.000  1.000
   spin  2
    eigenvalues: 
  0.200  0.200  0.200  0.200  0.200
    eigenvectors:
  1.000  0.000  0.000  0.000  0.000
  0.000  1.000  0.000  0.000  0.000
  0.000  0.000  1.000  0.000  0.000
  0.000  0.000  0.000  1.000  0.000
  0.000  0.000  0.000  0.000  1.000
    occupations:
  0.200  0.000  0.000  0.000  0.000
  0.000  0.200  0.000  0.000  0.000
  0.000  0.000  0.200  0.000  0.000
  0.000  0.000  0.000  0.200  0.000
  0.000  0.000  0.000  0.000  0.200
atomic mag. moment =     4.000000
atom   87   Tr[ns(na)] (up, down, total) =   1.00000  5.00000  6.00000
   spin  1
    eigenvalues: 
  0.200  0.200  0.200  0.200  0.200
    eigenvectors:
  1.000  0.000  0.000  0.000  0.000
  0.000  1.000  0.000  0.000  0.000
  0.000  0.000  1.000  0.000  0.000
  0.000  0.000  0.000  1.000  0.000
  0.000  0.000  0.000  0.000  1.000
    occupations:
  0.200  0.000  0.000  0.000  0.000
  0.000  0.200  0.000  0.000  0.000
  0.000  0.000  0.200  0.000  0.000
  0.000  0.000  0.000  0.200  0.000
  0.000  0.000  0.000  0.000  0.200
   spin  2
    eigenvalues: 
  1.000  1.000  1.000  1.000  1.000
    eigenvectors:
  1.000  0.000  0.000  0.000  0.000
  0.000  1.000  0.000  0.000  0.000
  0.000  0.000  1.000  0.000  0.000
  0.000  0.000  0.000  1.000  0.000
  0.000  0.000  0.000  0.000  1.000
    occupations:
  1.000  0.000  0.000  0.000  0.000
  0.000  1.000  0.000  0.000  0.000
  0.000  0.000  1.000  0.000  0.000
  0.000  0.000  0.000  1.000  0.000
  0.000  0.000  0.000  0.000  1.000
atomic mag. moment =    -4.000000
atom   88   Tr[ns(na)] (up, down, total) =   5.00000  1.00000  6.00000
   spin  1
    eigenvalues: 
  1.000  1.000  1.000  1.000  1.000
    eigenvectors:
  1.000  0.000  0.000  0.000  0.000
  0.000  1.000  0.000  0.000  0.000
  0.000  0.000  1.000  0.000  0.000
  0.000  0.000  0.000  1.000  0.000
  0.000  0.000  0.000  0.000  1.000
    occupations:
  1.000  0.000  0.000  0.000  0.000
  0.000  1.000  0.000  0.000  0.000
  0.000  0.000  1.000  0.000  0.000
  0.000  0.000  0.000  1.000  0.000
  0.000  0.000  0.000  0.000  1.000
   spin  2
    eigenvalues: 
  0.200  0.200  0.200  0.200  0.200
    eigenvectors:
  1.000  0.000  0.000  0.000  0.000
  0.000  1.000  0.000  0.000  0.000
  0.000  0.000  1.000  0.000  0.000
  0.000  0.000  0.000  1.000  0.000
  0.000  0.000  0.000  0.000  1.000
    occupations:
  0.200  0.000  0.000  0.000  0.000
  0.000  0.200  0.000  0.000  0.000
  0.000  0.000  0.200  0.000  0.000
  0.000  0.000  0.000  0.200  0.000
  0.000  0.000  0.000  0.000  0.200
atomic mag. moment =     4.000000
atom   89   Tr[ns(na)] (up, down, total) =   1.00000  5.00000  6.00000
   spin  1
    eigenvalues: 
  0.200  0.200  0.200  0.200  0.200
    eigenvectors:
  1.000  0.000  0.000  0.000  0.000
  0.000  1.000  0.000  0.000  0.000
  0.000  0.000  1.000  0.000  0.000
  0.000  0.000  0.000  1.000  0.000
  0.000  0.000  0.000  0.000  1.000
    occupations:
  0.200  0.000  0.000  0.000  0.000
  0.000  0.200  0.000  0.000  0.000
  0.000  0.000  0.200  0.000  0.000
  0.000  0.000  0.000  0.200  0.000
  0.000  0.000  0.000  0.000  0.200
   spin  2
    eigenvalues: 
  1.000  1.000  1.000  1.000  1.000
    eigenvectors:
  1.000  0.000  0.000  0.000  0.000
  0.000  1.000  0.000  0.000  0.000
  0.000  0.000  1.000  0.000  0.000
  0.000  0.000  0.000  1.000  0.000
  0.000  0.000  0.000  0.000  1.000
    occupations:
  1.000  0.000  0.000  0.000  0.000
  0.000  1.000  0.000  0.000  0.000
  0.000  0.000  1.000  0.000  0.000
  0.000  0.000  0.000  1.000  0.000
  0.000  0.000  0.000  0.000  1.000
atomic mag. moment =    -4.000000
atom   90   Tr[ns(na)] (up, down, total) =   5.00000  1.00000  6.00000
   spin  1
    eigenvalues: 
  1.000  1.000  1.000  1.000  1.000
    eigenvectors:
  1.000  0.000  0.000  0.000  0.000
  0.000  1.000  0.000  0.000  0.000
  0.000  0.000  1.000  0.000  0.000
  0.000  0.000  0.000  1.000  0.000
  0.000  0.000  0.000  0.000  1.000
    occupations:
  1.000  0.000  0.000  0.000  0.000
  0.000  1.000  0.000  0.000  0.000
  0.000  0.000  1.000  0.000  0.000
  0.000  0.000  0.000  1.000  0.000
  0.000  0.000  0.000  0.000  1.000
   spin  2
    eigenvalues: 
  0.200  0.200  0.200  0.200  0.200
    eigenvectors:
  1.000  0.000  0.000  0.000  0.000
  0.000  1.000  0.000  0.000  0.000
  0.000  0.000  1.000  0.000  0.000
  0.000  0.000  0.000  1.000  0.000
  0.000  0.000  0.000  0.000  1.000
    occupations:
  0.200  0.000  0.000  0.000  0.000
  0.000  0.200  0.000  0.000  0.000
  0.000  0.000  0.200  0.000  0.000
  0.000  0.000  0.000  0.200  0.000
  0.000  0.000  0.000  0.000  0.200
atomic mag. moment =     4.000000
atom  109   Tr[ns(na)] (up, down, total) =   1.00000  5.00000  6.00000
   spin  1
    eigenvalues: 
  0.200  0.200  0.200  0.200  0.200
    eigenvectors:
  1.000  0.000  0.000  0.000  0.000
  0.000  1.000  0.000  0.000  0.000
  0.000  0.000  1.000  0.000  0.000
  0.000  0.000  0.000  1.000  0.000
  0.000  0.000  0.000  0.000  1.000
    occupations:
  0.200  0.000  0.000  0.000  0.000
  0.000  0.200  0.000  0.000  0.000
  0.000  0.000  0.200  0.000  0.000
  0.000  0.000  0.000  0.200  0.000
  0.000  0.000  0.000  0.000  0.200
   spin  2
    eigenvalues: 
  1.000  1.000  1.000  1.000  1.000
    eigenvectors:
  1.000  0.000  0.000  0.000  0.000
  0.000  1.000  0.000  0.000  0.000
  0.000  0.000  1.000  0.000  0.000
  0.000  0.000  0.000  1.000  0.000
  0.000  0.000  0.000  0.000  1.000
    occupations:
  1.000  0.000  0.000  0.000  0.000
  0.000  1.000  0.000  0.000  0.000
  0.000  0.000  1.000  0.000  0.000
  0.000  0.000  0.000  1.000  0.000
  0.000  0.000  0.000  0.000  1.000
atomic mag. moment =    -4.000000
atom  110   Tr[ns(na)] (up, down, total) =   5.00000  1.00000  6.00000
   spin  1
    eigenvalues: 
  1.000  1.000  1.000  1.000  1.000
    eigenvectors:
  1.000  0.000  0.000  0.000  0.000
  0.000  1.000  0.000  0.000  0.000
  0.000  0.000  1.000  0.000  0.000
  0.000  0.000  0.000  1.000  0.000
  0.000  0.000  0.000  0.000  1.000
    occupations:
  1.000  0.000  0.000  0.000  0.000
  0.000  1.000  0.000  0.000  0.000
  0.000  0.000  1.000  0.000  0.000
  0.000  0.000  0.000  1.000  0.000
  0.000  0.000  0.000  0.000  1.000
   spin  2
    eigenvalues: 
  0.200  0.200  0.200  0.200  0.200
    eigenvectors:
  1.000  0.000  0.000  0.000  0.000
  0.000  1.000  0.000  0.000  0.000
  0.000  0.000  1.000  0.000  0.000
  0.000  0.000  0.000  1.000  0.000
  0.000  0.000  0.000  0.000  1.000
    occupations:
  0.200  0.000  0.000  0.000  0.000
  0.000  0.200  0.000  0.000  0.000
  0.000  0.000  0.200  0.000  0.000
  0.000  0.000  0.000  0.200  0.000
  0.000  0.000  0.000  0.000  0.200
atomic mag. moment =     4.000000
atom  111   Tr[ns(na)] (up, down, total) =   1.00000  5.00000  6.00000
   spin  1
    eigenvalues: 
  0.200  0.200  0.200  0.200  0.200
    eigenvectors:
  1.000  0.000  0.000  0.000  0.000
  0.000  1.000  0.000  0.000  0.000
  0.000  0.000  1.000  0.000  0.000
  0.000  0.000  0.000  1.000  0.000
  0.000  0.000  0.000  0.000  1.000
    occupations:
  0.200  0.000  0.000  0.000  0.000
  0.000  0.200  0.000  0.000  0.000
  0.000  0.000  0.200  0.000  0.000
  0.000  0.000  0.000  0.200  0.000
  0.000  0.000  0.000  0.000  0.200
   spin  2
    eigenvalues: 
  1.000  1.000  1.000  1.000  1.000
    eigenvectors:
  1.000  0.000  0.000  0.000  0.000
  0.000  1.000  0.000  0.000  0.000
  0.000  0.000  1.000  0.000  0.000
  0.000  0.000  0.000  1.000  0.000
  0.000  0.000  0.000  0.000  1.000
    occupations:
  1.000  0.000  0.000  0.000  0.000
  0.000  1.000  0.000  0.000  0.000
  0.000  0.000  1.000  0.000  0.000
  0.000  0.000  0.000  1.000  0.000
  0.000  0.000  0.000  0.000  1.000
atomic mag. moment =    -4.000000
atom  112   Tr[ns(na)] (up, down, total) =   5.00000  1.00000  6.00000
   spin  1
    eigenvalues: 
  1.000  1.000  1.000  1.000  1.000
    eigenvectors:
  1.000  0.000  0.000  0.000  0.000
  0.000  1.000  0.000  0.000  0.000
  0.000  0.000  1.000  0.000  0.000
  0.000  0.000  0.000  1.000  0.000
  0.000  0.000  0.000  0.000  1.000
    occupations:
  1.000  0.000  0.000  0.000  0.000
  0.000  1.000  0.000  0.000  0.000
  0.000  0.000  1.000  0.000  0.000
  0.000  0.000  0.000  1.000  0.000
  0.000  0.000  0.000  0.000  1.000
   spin  2
    eigenvalues: 
  0.200  0.200  0.200  0.200  0.200
    eigenvectors:
  1.000  0.000  0.000  0.000  0.000
  0.000  1.000  0.000  0.000  0.000
  0.000  0.000  1.000  0.000  0.000
  0.000  0.000  0.000  1.000  0.000
  0.000  0.000  0.000  0.000  1.000
    occupations:
  0.200  0.000  0.000  0.000  0.000
  0.000  0.200  0.000  0.000  0.000
  0.000  0.000  0.200  0.000  0.000
  0.000  0.000  0.000  0.200  0.000
  0.000  0.000  0.000  0.000  0.200
atomic mag. moment =     4.000000
atom  114   Tr[ns(na)] (up, down, total) =   5.00000  1.00000  6.00000
   spin  1
    eigenvalues: 
  1.000  1.000  1.000  1.000  1.000
    eigenvectors:
  1.000  0.000  0.000  0.000  0.000
  0.000  1.000  0.000  0.000  0.000
  0.000  0.000  1.000  0.000  0.000
  0.000  0.000  0.000  1.000  0.000
  0.000  0.000  0.000  0.000  1.000
    occupations:
  1.000  0.000  0.000  0.000  0.000
  0.000  1.000  0.000  0.000  0.000
  0.000  0.000  1.000  0.000  0.000
  0.000  0.000  0.000  1.000  0.000
  0.000  0.000  0.000  0.000  1.000
   spin  2
    eigenvalues: 
  0.200  0.200  0.200  0.200  0.200
    eigenvectors:
  1.000  0.000  0.000  0.000  0.000
  0.000  1.000  0.000  0.000  0.000
  0.000  0.000  1.000  0.000  0.000
  0.000  0.000  0.000  1.000  0.000
  0.000  0.000  0.000  0.000  1.000
    occupations:
  0.200  0.000  0.000  0.000  0.000
  0.000  0.200  0.000  0.000  0.000
  0.000  0.000  0.200  0.000  0.000
  0.000  0.000  0.000  0.200  0.000
  0.000  0.000  0.000  0.000  0.200
atomic mag. moment =     4.000000
atom  115   Tr[ns(na)] (up, down, total) =   1.00000  5.00000  6.00000
   spin  1
    eigenvalues: 
  0.200  0.200  0.200  0.200  0.200
    eigenvectors:
  1.000  0.000  0.000  0.000  0.000
  0.000  1.000  0.000  0.000  0.000
  0.000  0.000  1.000  0.000  0.000
  0.000  0.000  0.000  1.000  0.000
  0.000  0.000  0.000  0.000  1.000
    occupations:
  0.200  0.000  0.000  0.000  0.000
  0.000  0.200  0.000  0.000  0.000
  0.000  0.000  0.200  0.000  0.000
  0.000  0.000  0.000  0.200  0.000
  0.000  0.000  0.000  0.000  0.200
   spin  2
    eigenvalues: 
  1.000  1.000  1.000  1.000  1.000
    eigenvectors:
  1.000  0.000  0.000  0.000  0.000
  0.000  1.000  0.000  0.000  0.000
  0.000  0.000  1.000  0.000  0.000
  0.000  0.000  0.000  1.000  0.000
  0.000  0.000  0.000  0.000  1.000
    occupations:
  1.000  0.000  0.000  0.000  0.000
  0.000  1.000  0.000  0.000  0.000
  0.000  0.000  1.000  0.000  0.000
  0.000  0.000  0.000  1.000  0.000
  0.000  0.000  0.000  0.000  1.000
atomic mag. moment =    -4.000000
atom  116   Tr[ns(na)] (up, down, total) =   5.00000  1.00000  6.00000
   spin  1
    eigenvalues: 
  1.000  1.000  1.000  1.000  1.000
    eigenvectors:
  1.000  0.000  0.000  0.000  0.000
  0.000  1.000  0.000  0.000  0.000
  0.000  0.000  1.000  0.000  0.000
  0.000  0.000  0.000  1.000  0.000
  0.000  0.000  0.000  0.000  1.000
    occupations:
  1.000  0.000  0.000  0.000  0.000
  0.000  1.000  0.000  0.000  0.000
  0.000  0.000  1.000  0.000  0.000
  0.000  0.000  0.000  1.000  0.000
  0.000  0.000  0.000  0.000  1.000
   spin  2
    eigenvalues: 
  0.200  0.200  0.200  0.200  0.200
    eigenvectors:
  1.000  0.000  0.000  0.000  0.000
  0.000  1.000  0.000  0.000  0.000
  0.000  0.000  1.000  0.000  0.000
  0.000  0.000  0.000  1.000  0.000
  0.000  0.000  0.000  0.000  1.000
    occupations:
  0.200  0.000  0.000  0.000  0.000
  0.000  0.200  0.000  0.000  0.000
  0.000  0.000  0.200  0.000  0.000
  0.000  0.000  0.000  0.200  0.000
  0.000  0.000  0.000  0.000  0.200
atomic mag. moment =     4.000000
atom  117   Tr[ns(na)] (up, down, total) =   1.00000  5.00000  6.00000
   spin  1
    eigenvalues: 
  0.200  0.200  0.200  0.200  0.200
    eigenvectors:
  1.000  0.000  0.000  0.000  0.000
  0.000  1.000  0.000  0.000  0.000
  0.000  0.000  1.000  0.000  0.000
  0.000  0.000  0.000  1.000  0.000
  0.000  0.000  0.000  0.000  1.000
    occupations:
  0.200  0.000  0.000  0.000  0.000
  0.000  0.200  0.000  0.000  0.000
  0.000  0.000  0.200  0.000  0.000
  0.000  0.000  0.000  0.200  0.000
  0.000  0.000  0.000  0.000  0.200
   spin  2
    eigenvalues: 
  1.000  1.000  1.000  1.000  1.000
    eigenvectors:
  1.000  0.000  0.000  0.000  0.000
  0.000  1.000  0.000  0.000  0.000
  0.000  0.000  1.000  0.000  0.000
  0.000  0.000  0.000  1.000  0.000
  0.000  0.000  0.000  0.000  1.000
    occupations:
  1.000  0.000  0.000  0.000  0.000
  0.000  1.000  0.000  0.000  0.000
  0.000  0.000  1.000  0.000  0.000
  0.000  0.000  0.000  1.000  0.000
  0.000  0.000  0.000  0.000  1.000
atomic mag. moment =    -4.000000
atom  118   Tr[ns(na)] (up, down, total) =   5.00000  1.00000  6.00000
   spin  1
    eigenvalues: 
  1.000  1.000  1.000  1.000  1.000
    eigenvectors:
  1.000  0.000  0.000  0.000  0.000
  0.000  1.000  0.000  0.000  0.000
  0.000  0.000  1.000  0.000  0.000
  0.000  0.000  0.000  1.000  0.000
  0.000  0.000  0.000  0.000  1.000
    occupations:
  1.000  0.000  0.000  0.000  0.000
  0.000  1.000  0.000  0.000  0.000
  0.000  0.000  1.000  0.000  0.000
  0.000  0.000  0.000  1.000  0.000
  0.000  0.000  0.000  0.000  1.000
   spin  2
    eigenvalues: 
  0.200  0.200  0.200  0.200  0.200
    eigenvectors:
  1.000  0.000  0.000  0.000  0.000
  0.000  1.000  0.000  0.000  0.000
  0.000  0.000  1.000  0.000  0.000
  0.000  0.000  0.000  1.000  0.000
  0.000  0.000  0.000  0.000  1.000
    occupations:
  0.200  0.000  0.000  0.000  0.000
  0.000  0.200  0.000  0.000  0.000
  0.000  0.000  0.200  0.000  0.000
  0.000  0.000  0.000  0.200  0.000
  0.000  0.000  0.000  0.000  0.200
atomic mag. moment =     4.000000
atom  119   Tr[ns(na)] (up, down, total) =   1.00000  5.00000  6.00000
   spin  1
    eigenvalues: 
  0.200  0.200  0.200  0.200  0.200
    eigenvectors:
  1.000  0.000  0.000  0.000  0.000
  0.000  1.000  0.000  0.000  0.000
  0.000  0.000  1.000  0.000  0.000
  0.000  0.000  0.000  1.000  0.000
  0.000  0.000  0.000  0.000  1.000
    occupations:
  0.200  0.000  0.000  0.000  0.000
  0.000  0.200  0.000  0.000  0.000
  0.000  0.000  0.200  0.000  0.000
  0.000  0.000  0.000  0.200  0.000
  0.000  0.000  0.000  0.000  0.200
   spin  2
    eigenvalues: 
  1.000  1.000  1.000  1.000  1.000
    eigenvectors:
  1.000  0.000  0.000  0.000  0.000
  0.000  1.000  0.000  0.000  0.000
  0.000  0.000  1.000  0.000  0.000
  0.000  0.000  0.000  1.000  0.000
  0.000  0.000  0.000  0.000  1.000
    occupations:
  1.000  0.000  0.000  0.000  0.000
  0.000  1.000  0.000  0.000  0.000
  0.000  0.000  1.000  0.000  0.000
  0.000  0.000  0.000  1.000  0.000
  0.000  0.000  0.000  0.000  1.000
atomic mag. moment =    -4.000000
N of occupied +U levels =  276.000000
 --- exit write_ns ---
 Atomic wfc used for LDA+U Projector are NOT orthogonalized
     Starting wfc are  904 randomized atomic wfcs

     total cpu time spent up to now is       39.4 secs

     per-process dynamical memory:   424.1 Mb

     Self-consistent Calculation

     iteration #  1     ecut=    40.00 Ry     beta=0.30
     Davidson diagonalization with overlap
     ethr =  1.00E-02,  avg # of iterations =  3.0
 --- enter write_ns ---
 LDA+U parameters:
U( 2)     =  4.30000000
alpha( 2) =  0.00000000
U( 3)     =  4.30000000
alpha( 3) =  0.00000000
atom   19   Tr[ns(na)] (up, down, total) =   0.32831  4.96219  5.29050
   spin  1
    eigenvalues: 
  0.038  0.038  0.039  0.107  0.107
    eigenvectors:
  0.005  0.034  0.961  0.000  0.000
  0.260  0.135  0.012  0.088  0.505
  0.143  0.261  0.005  0.505  0.087
  0.296  0.278  0.019  0.024  0.384
  0.295  0.293  0.004  0.383  0.025
    occupations:
  0.039 -0.000  0.000 -0.000 -0.000
 -0.000  0.079  0.000  0.034  0.005
  0.000  0.000  0.079  0.005 -0.033
 -0.000  0.034  0.005  0.066 -0.000
 -0.000  0.005 -0.033 -0.000  0.066
   spin  2
    eigenvalues: 
  0.990  0.991  0.991  0.995  0.995
    eigenvectors:
  0.998  0.001  0.001  0.000  0.000
  0.000  0.174  0.008  0.807  0.011
  0.000  0.008  0.181  0.011  0.800
  0.001  0.808  0.009  0.174  0.008
  0.000  0.009  0.801  0.009  0.180
    occupations:
  0.990  0.000  0.000  0.000  0.000
  0.000  0.994  0.000  0.001  0.000
  0.000  0.000  0.994  0.000 -0.002
  0.000  0.001  0.000  0.992  0.000
  0.000  0.000 -0.002  0.000  0.992
atomic mag. moment =    -4.633875
atom   20   Tr[ns(na)] (up, down, total) =   4.96192  0.32809  5.29001
   spin  1
    eigenvalues: 
  0.990  0.991  0.991  0.995  0.995
    eigenvectors:
  0.997  0.002  0.001  0.000  0.000
  0.001  0.073  0.089  0.385  0.452
  0.000  0.090  0.077  0.449  0.385
  0.002  0.452  0.384  0.062  0.100
  0.000  0.383  0.450  0.104  0.063
    occupations:
  0.990  0.000 -0.000  0.000 -0.000
  0.000  0.994 -0.000 -0.001  0.000
 -0.000 -0.000  0.994  0.000  0.001
  0.000 -0.001  0.000  0.992 -0.000
 -0.000  0.000  0.001 -0.000  0.992
   spin  2
    eigenvalues: 
  0.038  0.038  0.039  0.106  0.107
    eigenvectors:
  0.022  0.027  0.951  0.000  0.000
  0.054  0.345  0.018  0.542  0.041
  0.356  0.060  0.003  0.042  0.539
  0.030  0.531  0.022  0.409  0.008
  0.538  0.037  0.006  0.007  0.413
    occupations:
  0.039  0.000 -0.000  0.000 -0.000
  0.000  0.078 -0.000 -0.033  0.005
 -0.000 -0.000  0.078  0.004  0.033
  0.000 -0.033  0.004  0.067 -0.000
 -0.000  0.005  0.033 -0.000  0.067
atomic mag. moment =     4.633837
atom   21   Tr[ns(na)] (up, down, total) =   0.32800  4.96195  5.28996
   spin  1
    eigenvalues: 
  0.038  0.038  0.039  0.106  0.107
    eigenvectors:
  0.003  0.002  0.996  0.000  0.000
  0.188  0.228  0.000  0.511  0.073
  0.226  0.187  0.002  0.073  0.512
  0.348  0.236  0.000  0.319  0.097
  0.236  0.347  0.002  0.097  0.318
    occupations:
  0.039  0.000 -0.000  0.000 -0.000
  0.000  0.078  0.000  0.033  0.005
 -0.000  0.000  0.078  0.005 -0.033
  0.000  0.033  0.005  0.066 -0.000
 -0.000  0.005 -0.033 -0.000  0.066
   spin  2
    eigenvalues: 
  0.990  0.991  0.991  0.995  0.995
    eigenvectors:
  0.999  0.000  0.001  0.000  0.000
  0.000  0.166  0.002  0.799  0.033
  0.000  0.002  0.171  0.033  0.794
  0.000  0.833  0.000  0.153  0.014
  0.000  0.000  0.827  0.014  0.158
    occupations:
  0.990  0.000  0.000 -0.000 -0.000
  0.000  0.994  0.000  0.001  0.000
  0.000  0.000  0.994  0.000 -0.001
 -0.000  0.001  0.000  0.992 -0.000
 -0.000  0.000 -0.001 -0.000  0.992
atomic mag. moment =    -4.633946
atom   22   Tr[ns(na)] (up, down, total) =   4.96176  0.32884  5.29060
   spin  1
    eigenvalues: 
  0.990  0.991  0.991  0.995  0.995
    eigenvectors:
  0.999  0.000  0.001  0.000  0.000
  0.000  0.165  0.000  0.589  0.245
  0.000  0.000  0.166  0.247  0.587
  0.000  0.828  0.006  0.100  0.066
  0.001  0.006  0.828  0.064  0.102
    occupations:
  0.990  0.000 -0.000 -0.000  0.000
  0.000  0.994 -0.000 -0.001  0.000
 -0.000 -0.000  0.994  0.000  0.001
 -0.000 -0.001  0.000  0.992  0.000
  0.000  0.000  0.001  0.000  0.992
   spin  2
    eigenvalues: 
  0.038  0.038  0.039  0.106  0.107
    eigenvectors:
  0.000  0.008  0.992  0.000  0.000
  0.004  0.412  0.003  0.579  0.001
  0.415  0.004  0.000  0.001  0.579
  0.001  0.574  0.004  0.416  0.004
  0.579  0.001  0.000  0.004  0.416
    occupations:
  0.039  0.000 -0.000  0.000 -0.000
  0.000  0.078  0.000 -0.033  0.005
 -0.000  0.000  0.078  0.005  0.034
  0.000 -0.033  0.005  0.067  0.000
 -0.000  0.005  0.034  0.000  0.067
atomic mag. moment =     4.632918
atom   23   Tr[ns(na)] (up, down, total) =   0.32199  4.96228  5.28427
   spin  1
    eigenvalues: 
  0.036  0.037  0.039  0.103  0.107
    eigenvectors:
  0.050  0.458  0.492  0.001  0.000
  0.046  0.142  0.212  0.564  0.035
  0.336  0.060  0.003  0.031  0.570
  0.130  0.197  0.270  0.400  0.003
  0.438  0.143  0.023  0.004  0.392
    occupations:
  0.038  0.000 -0.000  0.002  0.000
  0.000  0.077 -0.001  0.032  0.005
 -0.000 -0.001  0.079  0.005 -0.034
  0.002  0.032  0.005  0.064 -0.000
  0.000  0.005 -0.034 -0.000  0.064
   spin  2
    eigenvalues: 
  0.991  0.991  0.991  0.995  0.995
    eigenvectors:
  0.855  0.045  0.100  0.000  0.000
  0.002  0.155  0.033  0.017  0.792
  0.020  0.020  0.129  0.812  0.019
  0.013  0.749  0.050  0.000  0.189
  0.109  0.031  0.689  0.171  0.000
    occupations:
  0.991 -0.000 -0.000 -0.000 -0.000
 -0.000  0.994  0.000  0.002  0.000
 -0.000  0.000  0.994  0.000 -0.001
 -0.000  0.002  0.000  0.992  0.000
 -0.000  0.000 -0.001  0.000  0.992
atomic mag. moment =    -4.640286
atom   24   Tr[ns(na)] (up, down, total) =   4.96268  0.32796  5.29064
   spin  1
    eigenvalues: 
  0.991  0.991  0.991  0.995  0.995
    eigenvectors:
  0.982  0.001  0.016  0.000  0.000
  0.002  0.107  0.089  0.501  0.301
  0.004  0.088  0.115  0.303  0.490
  0.001  0.527  0.275  0.138  0.058
  0.011  0.277  0.505  0.057  0.151
    occupations:
  0.991  0.000  0.000 -0.000 -0.000
  0.000  0.994  0.000 -0.002  0.000
  0.000  0.000  0.994  0.000  0.002
 -0.000 -0.002  0.000  0.992 -0.000
 -0.000  0.000  0.002 -0.000  0.992
   spin  2
    eigenvalues: 
  0.037  0.037  0.039  0.107  0.108
    eigenvectors:
  0.007  0.309  0.683  0.000  0.000
  0.283  0.085  0.023  0.501  0.109
  0.103  0.176  0.112  0.107  0.501
  0.513  0.084  0.014  0.274  0.115
  0.095  0.346  0.168  0.117  0.274
    occupations:
  0.039  0.000  0.001 -0.000  0.002
  0.000  0.080 -0.000 -0.034  0.004
  0.001 -0.000  0.080  0.005  0.034
 -0.000 -0.034  0.005  0.064 -0.000
  0.002  0.004  0.034 -0.000  0.065
atomic mag. moment =     4.634728
atom   25   Tr[ns(na)] (up, down, total) =   0.32928  4.96163  5.29091
   spin  1
    eigenvalues: 
  0.037  0.039  0.040  0.106  0.107
    eigenvectors:
  0.277  0.105  0.616  0.001  0.000
  0.113  0.140  0.174  0.255  0.318
  0.173  0.218  0.010  0.324  0.273
  0.236  0.138  0.199  0.258  0.169
  0.200  0.399  0.001  0.162  0.239
    occupations:
  0.039  0.001  0.000  0.003 -0.001
  0.001  0.078 -0.001  0.033  0.005
  0.000 -0.001  0.079  0.005 -0.033
  0.003  0.033  0.005  0.068  0.000
 -0.001  0.005 -0.033  0.000  0.066
   spin  2
    eigenvalues: 
  0.991  0.991  0.991  0.994  0.995
    eigenvectors:
  0.889  0.055  0.055  0.000  0.000
  0.011  0.166  0.010  0.050  0.763
  0.002  0.020  0.118  0.816  0.044
  0.086  0.607  0.127  0.015  0.165
  0.012  0.152  0.690  0.119  0.027
    occupations:
  0.991 -0.000  0.000 -0.000  0.000
 -0.000  0.994 -0.000  0.002  0.000
  0.000 -0.000  0.994 -0.000 -0.001
 -0.000  0.002 -0.000  0.992  0.000
  0.000  0.000 -0.001  0.000  0.991
atomic mag. moment =    -4.632350
atom   26   Tr[ns(na)] (up, down, total) =   4.96255  0.32119  5.28374
   spin  1
    eigenvalues: 
  0.991  0.991  0.991  0.995  0.995
    eigenvectors:
  0.885  0.099  0.015  0.000  0.000
  0.007  0.008  0.186  0.596  0.204
  0.014  0.153  0.015  0.217  0.601
  0.021  0.006  0.771  0.120  0.082
  0.073  0.734  0.013  0.068  0.112
    occupations:
  0.991  0.000  0.000  0.000 -0.000
  0.000  0.994 -0.000 -0.002  0.000
  0.000 -0.000  0.994  0.000  0.002
  0.000 -0.002  0.000  0.992  0.000
 -0.000  0.000  0.002  0.000  0.992
   spin  2
    eigenvalues: 
  0.036  0.037  0.039  0.104  0.107
    eigenvectors:
  0.070  0.314  0.615  0.000  0.000
  0.118  0.220  0.051  0.073  0.537
  0.250  0.041  0.108  0.530  0.070
  0.113  0.392  0.106  0.085  0.304
  0.449  0.033  0.119  0.311  0.088
    occupations:
  0.038  0.000 -0.000 -0.001 -0.001
  0.000  0.079  0.000 -0.034  0.005
 -0.000  0.000  0.077  0.004  0.033
 -0.001 -0.034  0.004  0.064 -0.000
 -0.001  0.005  0.033 -0.000  0.063
atomic mag. moment =     4.641362
atom   27   Tr[ns(na)] (up, down, total) =   0.33051  4.96184  5.29235
   spin  1
    eigenvalues: 
  0.038  0.038  0.039  0.107  0.108
    eigenvectors:
  0.000  0.017  0.982  0.000  0.000
  0.284  0.131  0.001  0.067  0.517
  0.132  0.280  0.006  0.515  0.067
  0.471  0.112  0.001  0.017  0.399
  0.113  0.460  0.009  0.401  0.017
    occupations:
  0.039  0.000 -0.000  0.000 -0.000
  0.000  0.079  0.000  0.034  0.005
 -0.000  0.000  0.078  0.005 -0.033
  0.000  0.034  0.005  0.067  0.000
 -0.000  0.005 -0.033  0.000  0.067
   spin  2
    eigenvalues: 
  0.990  0.991  0.991  0.995  0.995
    eigenvectors:
  0.996  0.000  0.004  0.000  0.000
  0.000  0.069  0.101  0.041  0.789
  0.000  0.098  0.067  0.794  0.041
  0.002  0.247  0.581  0.019  0.152
  0.002  0.585  0.247  0.147  0.018
    occupations:
  0.990  0.000  0.000 -0.000  0.000
  0.000  0.994 -0.000  0.001  0.000
  0.000 -0.000  0.994  0.000 -0.001
 -0.000  0.001  0.000  0.992  0.000
  0.000  0.000 -0.001  0.000  0.992
atomic mag. moment =    -4.631338
atom   28   Tr[ns(na)] (up, down, total) =   4.96224  0.32944  5.29167
   spin  1
    eigenvalues: 
  0.990  0.991  0.991  0.995  0.995
    eigenvectors:
  1.000  0.000  0.000  0.000  0.000
  0.000  0.115  0.071  0.394  0.420
  0.000  0.070  0.117  0.421  0.392
  0.000  0.425  0.388  0.071  0.116
  0.000  0.390  0.423  0.114  0.072
    occupations:
  0.990  0.000  0.000  0.000  0.000
  0.000  0.994 -0.000 -0.002  0.000
  0.000 -0.000  0.994  0.000  0.002
  0.000 -0.002  0.000  0.992  0.000
  0.000  0.000  0.002  0.000  0.992
   spin  2
    eigenvalues: 
  0.038  0.038  0.039  0.107  0.107
    eigenvectors:
  0.004  0.004  0.992  0.000  0.000
  0.106  0.299  0.000  0.070  0.525
  0.299  0.104  0.003  0.524  0.069
  0.087  0.508  0.001  0.090  0.315
  0.504  0.085  0.004  0.316  0.091
    occupations:
  0.039 -0.000 -0.000 -0.000 -0.000
 -0.000  0.079 -0.000 -0.034  0.005
 -0.000 -0.000  0.079  0.005  0.034
 -0.000 -0.034  0.005  0.066 -0.000
 -0.000  0.005  0.034 -0.000  0.066
atomic mag. moment =     4.632799
atom   29   Tr[ns(na)] (up, down, total) =   0.32775  4.96285  5.29060
   spin  1
    eigenvalues: 
  0.036  0.037  0.039  0.107  0.108
    eigenvectors:
  0.007  0.297  0.695  0.000  0.000
  0.289  0.050  0.045  0.005  0.611
  0.093  0.212  0.082  0.609  0.005
  0.383  0.143  0.090  0.001  0.383
  0.228  0.298  0.087  0.385  0.001
    occupations:
  0.038 -0.000 -0.001 -0.001  0.001
 -0.000  0.081  0.000  0.034  0.005
 -0.001  0.000  0.080  0.005 -0.034
 -0.001  0.034  0.005  0.064 -0.000
  0.001  0.005 -0.034 -0.000  0.064
   spin  2
    eigenvalues: 
  0.991  0.991  0.991  0.995  0.995
    eigenvectors:
  0.978  0.003  0.019  0.000  0.000
  0.002  0.194  0.019  0.683  0.103
  0.005  0.016  0.197  0.108  0.675
  0.008  0.674  0.102  0.169  0.047
  0.008  0.113  0.663  0.040  0.175
    occupations:
  0.991 -0.000 -0.000  0.000 -0.000
 -0.000  0.994  0.000  0.002  0.000
 -0.000  0.000  0.994  0.000 -0.002
  0.000  0.002  0.000  0.992 -0.000
 -0.000  0.000 -0.002 -0.000  0.992
atomic mag. moment =    -4.635100
atom   30   Tr[ns(na)] (up, down, total) =   4.96144  0.32573  5.28717
   spin  1
    eigenvalues: 
  0.991  0.991  0.991  0.994  0.995
    eigenvectors:
  0.753  0.209  0.037  0.000  0.000
  0.023  0.044  0.072  0.536  0.325
  0.012  0.092  0.073  0.319  0.504
  0.195  0.344  0.319  0.056  0.086
  0.017  0.310  0.500  0.089  0.084
    occupations:
  0.991 -0.000 -0.000  0.000 -0.000
 -0.000  0.994 -0.000 -0.001  0.000
 -0.000 -0.000  0.994  0.000  0.001
  0.000 -0.001  0.000  0.991 -0.000
 -0.000  0.000  0.001 -0.000  0.992
   spin  2
    eigenvalues: 
  0.038  0.038  0.039  0.105  0.106
    eigenvectors:
  0.075  0.137  0.788  0.000  0.000
  0.121  0.287  0.015  0.024  0.553
  0.270  0.075  0.081  0.550  0.024
  0.096  0.449  0.031  0.051  0.372
  0.438  0.051  0.085  0.375  0.051
    occupations:
  0.039  0.000 -0.000 -0.001 -0.001
  0.000  0.077  0.000 -0.033  0.005
 -0.000  0.000  0.077  0.005  0.033
 -0.001 -0.033  0.005  0.067  0.000
 -0.001  0.005  0.033  0.000  0.067
atomic mag. moment =     4.635711
atom   49   Tr[ns(na)] (up, down, total) =   0.32853  4.96216  5.29070
   spin  1
    eigenvalues: 
  0.038  0.038  0.039  0.107  0.107
    eigenvectors:
  0.002  0.036  0.962  0.000  0.000
  0.013  0.383  0.014  0.212  0.378
  0.392  0.012  0.003  0.381  0.213
  0.061  0.513  0.016  0.205  0.205
  0.532  0.056  0.006  0.202  0.205
    occupations:
  0.039  0.000 -0.000  0.000  0.000
  0.000  0.079 -0.000  0.033  0.005
 -0.000 -0.000  0.079  0.005 -0.034
  0.000  0.033  0.005  0.066  0.000
  0.000  0.005 -0.034  0.000  0.066
   spin  2
    eigenvalues: 
  0.990  0.991  0.991  0.995  0.995
    eigenvectors:
  0.997  0.003  0.000  0.000  0.000
  0.000  0.079  0.106  0.133  0.682
  0.000  0.102  0.082  0.686  0.131
  0.000  0.280  0.534  0.017  0.169
  0.002  0.537  0.277  0.164  0.019
    occupations:
  0.990 -0.000  0.000 -0.000 -0.000
 -0.000  0.994  0.000  0.002  0.000
  0.000  0.000  0.994  0.000 -0.001
 -0.000  0.002  0.000  0.992 -0.000
 -0.000  0.000 -0.001 -0.000  0.992
atomic mag. moment =    -4.633628
atom   50   Tr[ns(na)] (up, down, total) =   4.96189  0.32789  5.28978
   spin  1
    eigenvalues: 
  0.990  0.991  0.991  0.995  0.995
    eigenvectors:
  1.000  0.000  0.000  0.000  0.000
  0.000  0.130  0.038  0.186  0.647
  0.000  0.032  0.128  0.648  0.191
  0.000  0.594  0.238  0.053  0.116
  0.000  0.244  0.597  0.113  0.046
    occupations:
  0.990  0.000  0.000 -0.000 -0.000
  0.000  0.994  0.000 -0.001  0.000
  0.000  0.000  0.994  0.000  0.001
 -0.000 -0.001  0.000  0.992  0.000
 -0.000  0.000  0.001  0.000  0.992
   spin  2
    eigenvalues: 
  0.038  0.038  0.039  0.106  0.107
    eigenvectors:
  0.007  0.044  0.948  0.000  0.000
  0.364  0.044  0.010  0.014  0.568
  0.053  0.355  0.012  0.567  0.013
  0.548  0.023  0.010  0.000  0.419
  0.027  0.533  0.020  0.419  0.000
    occupations:
  0.039 -0.000  0.000 -0.000  0.000
 -0.000  0.078  0.000 -0.033  0.004
  0.000  0.000  0.077  0.005  0.033
 -0.000 -0.033  0.005  0.067  0.000
  0.000  0.004  0.033  0.000  0.067
atomic mag. moment =     4.634000
atom   51   Tr[ns(na)] (up, down, total) =   0.32875  4.96188  5.29063
   spin  1
    eigenvalues: 
  0.038  0.038  0.039  0.106  0.107
    eigenvectors:
  0.000  0.000  0.999  0.000  0.000
  0.170  0.247  0.000  0.158  0.425
  0.247  0.169  0.000  0.425  0.158
  0.320  0.263  0.000  0.065  0.353
  0.263  0.320  0.000  0.352  0.065
    occupations:
  0.039  0.000 -0.000  0.000  0.000
  0.000  0.078  0.000  0.033  0.005
 -0.000  0.000  0.078  0.005 -0.033
  0.000  0.033  0.005  0.067 -0.000
  0.000  0.005 -0.033 -0.000  0.067
   spin  2
    eigenvalues: 
[...]
    12.2966  12.2996  12.3077  12.3131  12.3218  12.3267  12.3370  12.3518
    12.3587  12.3683  12.3765  12.3897  12.4051  12.4101  12.4192  12.4457
    12.4571  12.4662  12.4683  12.4801  12.4958  12.5031  12.5112  12.5203
    12.5303  12.5403  12.5506  12.5588  12.5726  12.5736  12.5783  12.5868
    12.5930  12.5962  12.6039  12.6059  12.6211  12.6243  12.6370  12.6469
    12.6496  12.6555  12.6609  12.6685  12.6720  12.6847  12.6928  12.7016
    12.7076  12.7132  12.7430  12.7569  12.7614  12.7775  12.7914  12.8000
    12.8152  12.8169  12.8323  12.8386  12.8444  12.8562  12.8856  12.8860
    12.8932  12.9041  12.9117  12.9202  12.9338  12.9464  12.9564  12.9712
    12.9722  12.9847  12.9874  13.0010  13.0074  13.0209  13.0251  13.0303
    13.0556  13.0692  13.0736  13.0795  13.0893  13.1018  13.1034  13.1097
    13.1151  13.1275  13.1330  13.1443  13.1717  13.1762  13.1882  13.1939
    13.9973  14.7035  15.8706  15.9553

     the Fermi energy is     9.9003 ev

!    total energy              =  -14156.35295141 Ry
     Harris-Foulkes estimate   =  -14156.35295132 Ry
     estimated scf accuracy    <       0.00000003 Ry

     The total energy is the sum of the following terms:

     one-electron contribution =   -7760.14373436 Ry
     hartree contribution      =    4443.22703005 Ry
     xc contribution           =   -1954.29195433 Ry
     ewald contribution        =   -8890.51310694 Ry
     Hubbard energy            =       5.36809286 Ry
     smearing contrib. (-TS)   =       0.00072131 Ry

     total magnetization       =    -0.01 Bohr mag/cell
     absolute magnetization    =   199.96 Bohr mag/cell

     convergence has been achieved in  17 iterations

     Forces acting on atoms (cartesian axes, Ry/au):

     atom    1 type  1   force =     0.00021321   -0.00049580    0.00041355
     atom    2 type  1   force =     0.00006979    0.00003541   -0.00019178
     atom    3 type  1   force =     0.00033054   -0.00032270   -0.00013700
     atom    4 type  1   force =    -0.00016928   -0.00003921    0.00028018
     atom    5 type  1   force =     0.00002038    0.00029859    0.00003812
     atom    6 type  1   force =     0.00011045    0.00041452   -0.00015598
     atom    7 type  1   force =     0.00065030    0.00021205    0.00030235
     atom    8 type  1   force =    -0.00015391    0.00059111    0.00004513
     atom    9 type  1   force =    -0.00018370   -0.00039437   -0.00018587
     atom   10 type  1   force =    -0.00010119   -0.00005871   -0.00000804
     atom   11 type  1   force =    -0.00030773    0.00031058   -0.00039455
     atom   12 type  1   force =    -0.00030735   -0.00062780   -0.00067668
     atom   13 type  1   force =     0.00032786    0.00019961    0.00001222
     atom   14 type  1   force =     0.00012692   -0.00030374    0.00030779
     atom   15 type  1   force =    -0.00037500    0.00022490    0.00012183
     atom   16 type  1   force =    -0.00022156    0.00002209   -0.00028903
     atom   17 type  1   force =     0.00005202   -0.00052316    0.00046581
     atom   18 type  1   force =     0.00020208   -0.00095655    0.00018277
     atom   19 type  2   force =     0.00048408    0.00027019    0.00001799
     atom   20 type  3   force =    -0.00018365    0.00014256   -0.00008311
     atom   21 type  2   force =    -0.00012123    0.00022980    0.00007312
     atom   22 type  3   force =     0.00010540   -0.00027829   -0.00004730
     atom   23 type  2   force =     0.00021876    0.00056636    0.00004766
     atom   24 type  3   force =    -0.00024493   -0.00000035   -0.00017984
     atom   25 type  2   force =    -0.00001897    0.00033529    0.00002976
     atom   26 type  3   force =    -0.00013335    0.00001058    0.00042919
     atom   27 type  2   force =     0.00019525   -0.00013959    0.00008942
     atom   28 type  3   force =    -0.00008235   -0.00022065    0.00014267
     atom   29 type  2   force =    -0.00016402    0.00027926   -0.00003409
     atom   30 type  3   force =    -0.00031414   -0.00029247   -0.00035338
     atom   31 type  1   force =    -0.00011864   -0.00001391   -0.00009962
     atom   32 type  1   force =     0.00023828    0.00010262    0.00032601
     atom   33 type  1   force =    -0.00002905    0.00034674   -0.00023924
     atom   34 type  1   force =     0.00030687    0.00033180   -0.00065857
     atom   35 type  1   force =     0.00012711    0.00002777   -0.00056312
     atom   36 type  1   force =    -0.00027188    0.00001776   -0.00009402
     atom   37 type  1   force =    -0.00016900   -0.00023014    0.00005583
     atom   38 type  1   force =    -0.00062558    0.00013559   -0.00005701
     atom   39 type  1   force =     0.00029609   -0.00046301   -0.00047604
     atom   40 type  1   force =    -0.00006792   -0.00035102   -0.00017853
     atom   41 type  1   force =     0.00006965   -0.00069194   -0.00016877
     atom   42 type  1   force =     0.00010580   -0.00014972    0.00003599
     atom   43 type  1   force =    -0.00015601   -0.00004161   -0.00037878
     atom   44 type  1   force =     0.00003585   -0.00033259    0.00027137
     atom   45 type  1   force =     0.00003438   -0.00007918    0.00001602
     atom   46 type  1   force =    -0.00033444   -0.00000285    0.00002376
     atom   47 type  1   force =    -0.00016642    0.00033575   -0.00025639
     atom   48 type  1   force =    -0.00052132    0.00024409    0.00046876
     atom   49 type  2   force =    -0.00017005   -0.00020731   -0.00013980
     atom   50 type  3   force =     0.00009995    0.00001984    0.00001837
     atom   51 type  2   force =     0.00021659   -0.00009192   -0.00007936
     atom   52 type  3   force =    -0.00025042    0.00016686   -0.00014135
     atom   53 type  2   force =    -0.00042215   -0.00066945    0.00035166
     atom   54 type  3   force =    -0.00041191    0.00003637    0.00004485
     atom   55 type  2   force =    -0.00002533   -0.00043536   -0.00004164
     atom   56 type  3   force =     0.00041116    0.00041059   -0.00053675
     atom   57 type  2   force =    -0.00030585   -0.00005828   -0.00067842
     atom   58 type  3   force =     0.00018150    0.00000689    0.00002859
     atom   59 type  2   force =     0.00015510   -0.00012926   -0.00011636
     atom   60 type  3   force =    -0.00017861   -0.00049094   -0.00037193
     atom   61 type  1   force =    -0.00021152    0.00046796    0.00016043
     atom   62 type  1   force =    -0.00029110   -0.00002462    0.00052676
     atom   63 type  1   force =    -0.00000415    0.00016787   -0.00013346
     atom   64 type  1   force =     0.00000694   -0.00018722   -0.00029247
     atom   65 type  1   force =     0.00002293   -0.00005276    0.00015967
     atom   66 type  1   force =     0.00026065   -0.00036381    0.00024998
     atom   67 type  1   force =    -0.00040286    0.00037158    0.00003980
     atom   68 type  1   force =    -0.00017311    0.00014083    0.00034135
     atom   69 type  1   force =     0.00003010   -0.00009797    0.00057129
     atom   70 type  1   force =    -0.00068974   -0.00007138   -0.00006546
     atom   71 type  1   force =     0.00033189    0.00027684    0.00011652
     atom   72 type  1   force =    -0.00023086   -0.00030350    0.00031064
     atom   73 type  1   force =    -0.00018452   -0.00098130    0.00011868
     atom   74 type  1   force =    -0.00029332    0.00025880   -0.00005750
     atom   75 type  1   force =    -0.00022470    0.00003318    0.00014728
     atom   76 type  1   force =     0.00042206    0.00048066    0.00050820
     atom   77 type  1   force =     0.00059812    0.00029985    0.00006720
     atom   78 type  1   force =    -0.00048576   -0.00037070   -0.00002902
     atom   79 type  2   force =    -0.00016746    0.00011553    0.00048210
     atom   80 type  3   force =     0.00012373    0.00027039    0.00027334
     atom   81 type  2   force =     0.00002885    0.00015571    0.00016054
     atom   82 type  3   force =     0.00029881    0.00021559   -0.00012295
     atom   83 type  2   force =    -0.00024772    0.00009803   -0.00008051
     atom   84 type  3   force =     0.00009939   -0.00032346   -0.00008726
     atom   85 type  2   force =    -0.00010110    0.00002670    0.00033753
     atom   86 type  3   force =     0.00006629    0.00008720    0.00020783
     atom   87 type  2   force =    -0.00014189   -0.00022809   -0.00038899
     atom   88 type  3   force =     0.00015312   -0.00010576    0.00008810
     atom   89 type  2   force =    -0.00026092   -0.00012489    0.00021585
     atom   90 type  3   force =     0.00024065    0.00022439    0.00047150
     atom   91 type  1   force =    -0.00001529   -0.00000503   -0.00002710
     atom   92 type  1   force =     0.00004322    0.00005980   -0.00018813
     atom   93 type  1   force =    -0.00009306   -0.00008524   -0.00005007
     atom   94 type  1   force =    -0.00003992   -0.00007944   -0.00001114
     atom   95 type  1   force =    -0.00023323   -0.00025507   -0.00019622
     atom   96 type  1   force =    -0.00061926    0.00016331    0.00011790
     atom   97 type  1   force =     0.00046542   -0.00012839   -0.00049068
     atom   98 type  1   force =     0.00074098    0.00057089    0.00064723
     atom   99 type  1   force =     0.00001379   -0.00016627   -0.00016023
     atom  100 type  1   force =    -0.00024296   -0.00002348   -0.00015102
     atom  101 type  1   force =     0.00024670    0.00006242    0.00003245
     atom  102 type  1   force =    -0.00057957    0.00079781    0.00033330
     atom  103 type  1   force =     0.00088008    0.00045704    0.00029464
     atom  104 type  1   force =     0.00090514    0.00068084    0.00033521
     atom  105 type  1   force =     0.00056958   -0.00026918   -0.00010585
     atom  106 type  1   force =     0.00008756   -0.00012321   -0.00003678
     atom  107 type  1   force =     0.00031135   -0.00012144    0.00017151
     atom  108 type  1   force =     0.00002344    0.00069577    0.00032958
     atom  109 type  2   force =    -0.00003274   -0.00015051   -0.00038476
     atom  110 type  3   force =     0.00010402   -0.00016628   -0.00009620
     atom  111 type  2   force =    -0.00028219   -0.00023078   -0.00003246
     atom  112 type  3   force =     0.00005794    0.00023017   -0.00004257
     atom  113 type  4   force =     0.00028126    0.00080066    0.00044553
     atom  114 type  3   force =     0.00045868   -0.00002561   -0.00013754
     atom  115 type  2   force =     0.00004388    0.00000951   -0.00038293
     atom  116 type  3   force =    -0.00003806   -0.00037843   -0.00013587
     atom  117 type  2   force =     0.00007366    0.00061343   -0.00012276
     atom  118 type  3   force =    -0.00009054    0.00024880   -0.00017462
     atom  119 type  2   force =     0.00054110   -0.00002166   -0.00021459
     atom  120 type  4   force =    -0.00023221   -0.00084979   -0.00049131

     Total force =     0.005788     Total SCF correction =     0.000276

     BFGS Geometry Optimization

     bfgs converged in   1 scf cycles and   0 bfgs steps
     (criteria: energy <  1.0E-04 Ry, force <  1.0E-03 Ry/Bohr)

     End of BFGS Geometry Optimization

     Final energy   =  -14156.3529514131 Ry
Begin final coordinates

ATOMIC_POSITIONS (crystal)
O        0.319041698   0.333320443   0.916804920
O        0.166455022   0.485579148   0.916824003
O        0.485602581   0.318488970   0.082822128
O        0.332973530   0.014124256   0.083457104
O        0.181276550   0.166866179   0.083563120
O        0.014009183   0.180473994   0.916763483
O        0.152477890   0.000157798   0.250219555
O       -0.002913610   0.149489358   0.249773751
O        0.314367172   0.485884871   0.416692809
O        0.166352345   0.181079914   0.416849522
O        0.015400111   0.335386950   0.415977249
O        0.344175842   0.348013409   0.249466920
O        0.484985345   0.166676456   0.584205597
O        0.333430077   0.319112791   0.583465561
O        0.152591607   0.152696873   0.750489065
O        0.000590396   0.348090722   0.750610206
O        0.347110887   0.000010647   0.750489357
O        0.181227778   0.014981548   0.584002798
Fe1      0.165850131   0.332469326   0.020852704
Fe2      0.000311781   0.000167721   0.144090626
Fe1      0.333145621   0.166385823   0.977929996
Fe2     -0.000343823  -0.000398674   0.855863606
Fe1      0.003065147  -0.000533534   0.354083619
Fe2      0.329601168   0.163121089   0.480946341
Fe1      0.157895928   0.329309720   0.310887400
Fe2      0.332939395   0.164694892   0.186702545
Fe1      0.333566142   0.167133151   0.689444978
Fe2      0.166985635   0.333713994   0.812906433
Fe1      0.003421684   0.003514146   0.648516337
Fe2      0.165948771   0.331247584   0.523224438
O        0.819096247   0.333420013   0.916884464
O        0.666516464   0.485795396   0.916701905
O        0.985664100   0.318717296   0.082870431
O        0.833011219   0.013749860   0.083232072
O        0.680635389   0.166604851   0.082867576
O        0.514199364   0.180743163   0.916833550
O        0.652689499   0.002999239   0.248730133
O        0.499487836   0.151733175   0.250037504
O        0.819257361   0.483682244   0.416101243
O        0.666483215   0.180656618   0.416389253
O        0.513924383   0.328983155   0.417234757
O        0.849370247   0.347434351   0.248914715
O        0.984871497   0.166329466   0.583691464
O        0.834275488   0.320512430   0.583492511
O        0.652335847   0.152628856   0.750681075
O        0.500345382   0.347641370   0.750453465
O        0.847036861  -0.000401427   0.749814119
O        0.680676663   0.020421067   0.583613341
Fe1      0.667145794   0.333207818   0.020905319
Fe2      0.499802929  -0.000144681   0.143984091
Fe1      0.833101681   0.166494121   0.977852928
Fe2      0.500215738  -0.000055205   0.855941856
Fe1      0.498003939   0.000773112   0.354022069
Fe2      0.837052806   0.175633579   0.478772554
Fe1      0.670463052   0.328784705   0.311163687
Fe2      0.833873943   0.167361493   0.185165360
Fe1      0.834526580   0.168299863   0.690613124
Fe2      0.666671154   0.332984522   0.812957504
Fe1      0.496003332   0.000519396   0.648555719
Fe2      0.666132839   0.332381766   0.523447165
O        0.319141517   0.833189929   0.916717818
O        0.166672374   0.985629024   0.916705606
O        0.485707331   0.818497465   0.083693927
O        0.332822731   0.514233210   0.082583217
O        0.181134780   0.666926669   0.083259184
O        0.014302773   0.681055792   0.916789781
O        0.152345016   0.499994836   0.249208081
O        0.000289413   0.652615253   0.249497299
O        0.318816652   0.985381932   0.417138754
O        0.164783790   0.681314806   0.416399220
O        0.015186562   0.833479428   0.416874230
O        0.348203323   0.847515322   0.250363418
O        0.481886501   0.661909030   0.582952600
O        0.333403698   0.818911218   0.583649091
O        0.152109629   0.652544205   0.750530645
O       -0.000147275   0.847350116   0.750378076
O        0.347274172   0.499582631   0.750431725
O        0.180437412   0.513792222   0.583749323
Fe1      0.166698404   0.833274567   0.020920954
Fe2     -0.000264094   0.499732723   0.143706505
Fe1      0.333293579   0.666559634   0.977853876
Fe2     -0.000084217   0.499986427   0.855646999
Fe1      0.000952373   0.501822393   0.352544928
Fe2      0.324857549   0.665745505   0.480825497
Fe1      0.166979757   0.833232988   0.311270465
Fe2      0.330997124   0.666965172   0.186352835
Fe1      0.332007367   0.666215736   0.690841376
Fe2      0.166121722   0.833297076   0.812733834
Fe1      0.000725659   0.500117513   0.646696092
Fe2      0.167735192   0.835358701   0.521866764
O        0.818925341   0.833179480   0.916631150
O        0.666516615   0.985397289   0.916805742
O        0.985955812   0.818918180   0.083283920
O        0.832818264   0.514234825   0.083446727
O        0.681501508   0.667138251   0.082813910
O        0.514383183   0.680849807   0.916742091
O        0.651824648   0.496679789   0.250005542
O        0.503534695   0.655316861   0.249149730
O        0.818689400   0.989043577   0.416030634
O        0.674329108   0.684718046   0.416809172
O        0.512068472   0.829704354   0.416340276
O        0.848453098   0.847094315   0.249345873
O        0.986895834   0.666548920   0.583762875
O        0.838452549   0.819479074   0.583418242
O        0.652220912   0.652795837   0.749626035
O        0.500283020   0.847500792   0.749753687
O        0.847416401   0.499420331   0.750461659
O        0.681084946   0.514254964   0.583175225
Fe1      0.666707486   0.833892402   0.020905015
Fe2      0.499867825   0.499849402   0.138501940
Fe1      0.833490990   0.666730914   0.977905927
Fe2      0.499827493   0.500044012   0.855710727
Sn       0.499120817   0.499218852   0.352305668
Fe2      0.842029702   0.662759839   0.480691671
Fe1      0.671888335   0.842291234   0.305269414
Fe2      0.835588712   0.667558206   0.186373227
Fe1      0.833165943   0.665095050   0.690713392
Fe2      0.666563271   0.833154421   0.812784542
Fe1      0.499989635   0.496306455   0.648253360
Sn       0.667602338   0.835441824   0.520949389
End final coordinates



     Writing output data file fe2o3.save
 
     init_run     :     37.00s CPU     37.88s WALL (       1 calls)
     electrons    :   1612.59s CPU   1633.47s WALL (       1 calls)
     forces       :     54.92s CPU     55.28s WALL (       1 calls)

     Called by init_run:
     wfcinit      :     31.76s CPU     32.11s WALL (       1 calls)
     potinit      :      1.02s CPU      1.05s WALL (       1 calls)

     Called by electrons:
     c_bands      :   1453.14s CPU   1466.96s WALL (      17 calls)
     sum_band     :    133.28s CPU    137.00s WALL (      17 calls)
     v_of_rho     :      4.62s CPU      4.76s WALL (      18 calls)
     newd         :     20.97s CPU     24.25s WALL (      18 calls)
     mix_rho      :      0.98s CPU      1.04s WALL (      17 calls)

     Called by c_bands:
     init_us_2    :      3.74s CPU      3.80s WALL (      76 calls)
     cegterg      :   1278.61s CPU   1290.71s WALL (      34 calls)

     Called by sum_band:
     sum_band:bec :      0.46s CPU      0.46s WALL (      34 calls)
     addusdens    :     35.88s CPU     39.42s WALL (      17 calls)

     Called by *egterg:
     h_psi        :    441.32s CPU    441.57s WALL (     117 calls)
     s_psi        :    118.16s CPU    118.11s WALL (     121 calls)
     g_psi        :      0.97s CPU      0.97s WALL (      81 calls)
     cdiaghg      :    497.62s CPU    503.09s WALL (     115 calls)

     Called by h_psi:
     h_psi:pot    :    350.21s CPU    350.46s WALL (     117 calls)
     h_psi:calbec :    111.64s CPU    111.64s WALL (     117 calls)
     vloc_psi     :    126.57s CPU    126.85s WALL (     117 calls)
     add_vuspsi   :    112.00s CPU    111.97s WALL (     117 calls)
     vhpsi        :     88.80s CPU     88.81s WALL (     117 calls)

     General routines
     calbec       :    226.40s CPU    226.41s WALL (    2476 calls)
     fft          :      2.34s CPU      2.68s WALL (     567 calls)
     ffts         :      0.11s CPU      0.11s WALL (      70 calls)
     fftw         :    120.72s CPU    120.99s WALL (  136846 calls)
     interpolate  :      0.51s CPU      0.56s WALL (      70 calls)
     davcio       :      0.00s CPU      0.03s WALL (       2 calls)
 
     Parallel routines
     fft_scatter  :     35.71s CPU     36.09s WALL (  137483 calls)

     Hubbard U routines
     new_ns       :      7.65s CPU      7.67s WALL (      17 calls)
     vhpsi        :     88.80s CPU     88.81s WALL (     117 calls)
     force_hub    :     37.41s CPU     37.43s WALL (       1 calls)
 
     PWSCF        : 28m50.12s CPU    29m19.89s WALL

 
   This run was terminated on:  12:53: 3   9Oct2019            

=------------------------------------------------------------------------------=
   JOB DONE.
=------------------------------------------------------------------------------=
