
*************** JDFTx 1.3.1 (git hash 3c15ac7) ***************

Start date and time: Mon Dec 17 16:39:56 2018
Executable /export/data/share/wufeng/share/programs/JDFTX-201712-share/build/jdftx with command-line: -i main.in
Running on hosts (process indices):  krnode07.krhpc (0-1)  krnode08.krhpc (2-3)
Divided in process groups (process indices):  0 (0)  1 (1)  2 (2)  3 (3)
Resource initialization completed at t[s]:      0.03
Run totals: 4 processes, 32 threads, 0 GPUs


Input parsed successfully to the following command list (including defaults):

add-U 	Fe1 d 0.183747 \
	Fe2 d 0.183747 \
	O p 0.146997
basis kpoint-dependent
coords-type Lattice
core-overlap-check vector
coulomb-interaction Periodic
davidson-band-ratio 1.1
dump End State Dtot EigStats
dump-name charge.$VAR
elec-cutoff 20 120
elec-eigen-algo Davidson
elec-ex-corr gga-PBE
elec-initial-magnetization 0.000000 yes
electronic-minimize  \
	dirUpdateScheme      FletcherReeves \
	linminMethod         DirUpdateRecommended \
	nIterations          100 \
	history              15 \
	knormThreshold       0 \
	energyDiffThreshold  1e-08 \
	nEnergyDiff          2 \
	alphaTstart          1 \
	alphaTmin            1e-10 \
	updateTestStepSize   yes \
	alphaTreduceFactor   0.1 \
	alphaTincreaseFactor 3 \
	nAlphaAdjustMax      3 \
	wolfeEnergy          0.0001 \
	wolfeGradient        0.9 \
	fdTest               no
electronic-scf  \
	nIterations	200 \
	energyDiffThreshold	1e-07 \
	residualThreshold	1e-07 \
	mixFraction	0.5 \
	qMetric	0.8 \
	history	10 \
	nEigSteps	2 \
	eigDiffThreshold	1e-08 \
	mixedVariable	Density \
	qKerker	0.8 \
	qKappa	-1 \
	verbose	no \
	mixFractionMag	1.5
exchange-regularization WignerSeitzTruncated
fluid None
fluid-ex-corr lda-TF lda-PZ
fluid-gummel-loop 10 1.000000e-05
fluid-minimize  \
	dirUpdateScheme      PolakRibiere \
	linminMethod         DirUpdateRecommended \
	nIterations          100 \
	history              15 \
	knormThreshold       0 \
	energyDiffThreshold  0 \
	nEnergyDiff          2 \
	alphaTstart          1 \
	alphaTmin            1e-10 \
	updateTestStepSize   yes \
	alphaTreduceFactor   0.1 \
	alphaTincreaseFactor 3 \
	nAlphaAdjustMax      3 \
	wolfeEnergy          0.0001 \
	wolfeGradient        0.9 \
	fdTest               no
fluid-solvent H2O 55.338 ScalarEOS \
	epsBulk 78.4 \
	pMol 0.92466 \
	epsInf 1.77 \
	Pvap 1.06736e-10 \
	sigmaBulk 4.62e-05 \
	Rvdw 2.61727 \
	Res 1.42
forces-output-coords Positions
initial-magnetic-moments  \
	Fe1 5 5 5 5 5 5 5 5 5 5 5 5 5 5 5 5 \
	Fe2 -5 -5 -5 -5 -5 -5 -5 -5 -5 -5 -5 -5 -5 -5 -5 -5
initial-state charge.$VAR
ion Fe1   0.000000000000000   0.000000000000000   0.000000000000000 0
ion Fe1   0.000000000000000  -0.000000000000000   0.500000000000000 0
ion Fe1   0.000000000000000   0.500000000000000   0.000000000000000 0
ion Fe1   0.000000000000000   0.500000000000000   0.500000000000000 0
ion Fe1   0.500000000000000   0.000000000000000   0.000000000000000 0
ion Fe1   0.500000000000000  -0.000000000000000   0.500000000000000 0
ion Fe1   0.500000000000000   0.500000000000000   0.000000000000000 0
ion Fe1   0.500000000000000   0.500000000000000   0.500000000000000 0
ion Fe1   0.249999590000000   0.250000240000000   0.249999342000000 0
ion Fe1   0.250000236000000   0.249999850000000   0.750000905000000 0
ion Fe1   0.249999500000000   0.750000039000000   0.249999155000000 0
ion Fe1   0.250000267000000   0.749999946000000   0.750000643000000 0
ion Fe1   0.749999733000000   0.250000054000000   0.249999357000000 0
ion Fe1   0.750000500000000   0.249999961000000   0.750000845000000 0
ion Fe1   0.749999764000000   0.750000150000000   0.249999095000000 0
ion Fe1   0.750000410000000   0.749999760000000   0.750000658000000 0
ion Fe2   0.249999564000000   0.250000116000000  -0.000000355000000 0
ion Fe2   0.250000161000000   0.250000070000000   0.499999986000000 0
ion Fe2   0.249999552000000   0.749999613000000   0.000000035000000 0
ion Fe2   0.250000308000000   0.749999939000000   0.500000158000000 0
ion Fe2   0.750000448000000   0.250000387000000  -0.000000035000000 0
ion Fe2   0.749999692000000   0.250000061000000   0.499999842000000 0
ion Fe2   0.750000436000000   0.749999884000000   0.000000355000000 0
ion Fe2   0.749999839000000   0.749999930000000   0.500000014000000 0
ion Fe2   0.000000345000000  -0.000000043000000   0.249999017000000 0
ion Fe2  -0.000000345000000   0.000000043000000   0.750000983000000 0
ion Fe2   0.000000713000000   0.500000221000000   0.249998825000000 0
ion Fe2  -0.000000713000000   0.499999779000000   0.750001175000000 0
ion Fe2   0.500000320000000   0.000000068000000   0.249999415000000 0
ion Fe2   0.499999680000000  -0.000000068000000   0.750000585000000 0
ion Fe2   0.500000415000000   0.500000197000000   0.249999050000000 0
ion Fe2   0.499999585000000   0.499999803000000   0.750000950000000 0
ion La   0.245261596000000   0.020952418000000   0.124998857000000 0
ion La   0.245262648000000   0.020952644000000   0.624998788000000 0
ion La   0.245261768000000   0.520952493000000   0.124998346000000 0
ion La   0.245262485000000   0.520952470000000   0.624999211000000 0
ion La   0.745262473000000   0.020952560000000   0.124998661000000 0
ion La   0.745262489000000   0.020952644000000   0.624999033000000 0
ion La   0.745262307000000   0.520952366000000   0.124998735000000 0
ion La   0.745262130000000   0.520952702000000   0.624998751000000 0
ion La   0.254737840000000   0.479047298000000   0.375001219000000 0
ion La   0.254737663000000   0.479047634000000   0.875001228000000 0
ion La   0.254737481000000   0.979047351000000   0.375000937000000 0
ion La   0.254737497000000   0.979047435000000   0.875001302000000 0
ion La   0.754737530000000   0.479047530000000   0.375000759000000 0
ion La   0.754738247000000   0.479047507000000   0.875001617000000 0
ion La   0.754737367000000   0.979047351000000   0.375001182000000 0
ion La   0.754738419000000   0.979047577000000   0.875001106000000 0
ion La   0.495262209000000   0.229048105000000   0.375001161000000 0
ion La   0.495261932000000   0.229048532000000   0.875001146000000 0
ion La   0.495262558000000   0.729046902000000   0.375001232000000 0
ion La   0.495261882000000   0.729046734000000   0.875001024000000 0
ion La   0.995262708000000   0.229048115000000   0.375000912000000 0
ion La   0.995261723000000   0.229048172000000   0.875001445000000 0
ion La   0.995262509000000   0.729047001000000   0.375000949000000 0
ion La   0.995261663000000   0.729046931000000   0.875001567000000 0
ion La   0.004738351000000   0.270953069000000   0.124998419000000 0
ion La   0.004737505000000   0.270952999000000   0.624999080000000 0
ion La   0.004738291000000   0.770951843000000   0.124998541000000 0
ion La   0.004737306000000   0.770951900000000   0.624999117000000 0
ion La   0.504738118000000   0.270953266000000   0.124998962000000 0
ion La   0.504737442000000   0.270953098000000   0.624998797000000 0
ion La   0.504738068000000   0.770951483000000   0.124998840000000 0
ion La   0.504737791000000   0.770951910000000   0.624998868000000 0
ion O   0.355433663000000   0.105231486000000   0.272287507000000 0
ion O   0.355433557000000   0.105231350000000   0.772287840000000 0
ion O   0.355433313000000   0.605231635000000   0.272287440000000 0
ion O   0.355433548000000   0.605231786000000   0.772288072000000 0
ion O   0.855433384000000   0.105231453000000   0.272287443000000 0
ion O   0.855433669000000   0.105231542000000   0.772287978000000 0
ion O   0.855433638000000   0.605231635000000   0.272287375000000 0
ion O   0.855433791000000   0.605231648000000   0.772288106000000 0
ion O   0.144566164000000   0.394768382000000   0.227711864000000 0
ion O   0.144566317000000   0.394768395000000   0.727712655000000 0
ion O   0.144566286000000   0.894768503000000   0.227711992000000 0
ion O   0.144566571000000   0.894768592000000   0.727712587000000 0
ion O   0.644566423000000   0.394768244000000   0.227711898000000 0
ion O   0.644566658000000   0.394768395000000   0.727712590000000 0
ion O   0.644566414000000   0.894768695000000   0.227712130000000 0
ion O   0.644566308000000   0.894768559000000   0.727712523000000 0
ion O   0.105433833000000   0.144768846000000   0.227712181000000 0
ion O   0.105433881000000   0.144768710000000   0.727712636000000 0
ion O   0.105433941000000   0.644768743000000   0.227711909000000 0
ion O   0.105433951000000   0.644768842000000   0.727712630000000 0
ion O   0.605434134000000   0.144768457000000   0.227712083000000 0
ion O   0.605433786000000   0.144768727000000   0.727712549000000 0
ion O   0.605434019000000   0.644769067000000   0.227711973000000 0
ion O   0.605434058000000   0.644768961000000   0.727712520000000 0
ion O   0.394565942000000   0.355231010000000   0.272287510000000 0
ion O   0.394565981000000   0.355230904000000   0.772288012000000 0
ion O   0.394566214000000   0.855231302000000   0.272287481000000 0
ion O   0.394565866000000   0.855231572000000   0.772287902000000 0
ion O   0.894566049000000   0.355231129000000   0.272287400000000 0
ion O   0.894566059000000   0.355231228000000   0.772288076000000 0
ion O   0.894566119000000   0.855231319000000   0.272287394000000 0
ion O   0.894566167000000   0.855231183000000   0.772287804000000 0
ion O   0.394567077000000   0.355230719000000   0.477712914000000 0
ion O   0.394566958000000   0.355230818000000   0.977713085000000 0
ion O   0.394567250000000   0.855231164000000   0.477712876000000 0
ion O   0.394567326000000   0.855231301000000   0.977713017000000 0
ion O   0.894567221000000   0.355230888000000   0.477712864000000 0
ion O   0.894566931000000   0.355230908000000   0.977713186000000 0
ion O   0.894567500000000   0.855231194000000   0.477712833000000 0
ion O   0.894567232000000   0.855230937000000   0.977713203000000 0
ion O   0.105432828000000   0.144769048000000   0.022286810000000 0
ion O   0.105432560000000   0.144768791000000   0.522287137000000 0
ion O   0.105433129000000   0.644769092000000   0.022286827000000 0
ion O   0.105432839000000   0.644769112000000   0.522287106000000 0
ion O   0.605432704000000   0.144768684000000   0.022286996000000 0
ion O   0.605432780000000   0.144768821000000   0.522287094000000 0
ion O   0.605433072000000   0.644769182000000   0.022286928000000 0
ion O   0.605432953000000   0.644769281000000   0.522287056000000 0
ion O   0.144566764000000   0.394769024000000   0.022286871000000 0
ion O   0.144566741000000   0.394769364000000   0.522287087000000 0
ion O   0.144566831000000   0.894769321000000   0.022286931000000 0
ion O   0.144566890000000   0.894769778000000   0.522287116000000 0
ion O   0.644567048000000   0.394769227000000   0.022286926000000 0
ion O   0.644566817000000   0.394769228000000   0.522287125000000 0
ion O   0.644566642000000   0.894769763000000   0.022287021000000 0
ion O   0.644566859000000   0.894769663000000   0.522287019000000 0
ion O   0.355433111000000   0.105230315000000   0.477712952000000 0
ion O   0.355433328000000   0.105230215000000   0.977712944000000 0
ion O   0.355433153000000   0.605230802000000   0.477712846000000 0
ion O   0.355432922000000   0.605230803000000   0.977713039000000 0
ion O   0.855433110000000   0.105230200000000   0.477712855000000 0
ion O   0.855433169000000   0.105230657000000   0.977713034000000 0
ion O   0.855433259000000   0.605230666000000   0.477712884000000 0
ion O   0.855433236000000   0.605231006000000   0.977713094000000 0
ion O   0.041602525000000   0.011476388000000   0.375001834000000 0
ion O   0.041602532000000   0.011476293000000   0.875001866000000 0
ion O   0.041602551000000   0.511476268000000   0.375001820000000 0
ion O   0.041602158000000   0.511476009000000   0.875001898000000 0
ion O   0.541602508000000   0.011476321000000   0.375001878000000 0
ion O   0.541602546000000   0.011476393000000   0.875001807000000 0
ion O   0.541602731000000   0.511476354000000   0.375001714000000 0
ion O   0.541602775000000   0.511476258000000   0.875001922000000 0
ion O   0.458397225000000   0.488523712000000   0.124998078000000 0
ion O   0.458397269000000   0.488523616000000   0.624998286000000 0
ion O   0.458397454000000   0.988523616000000   0.124998193000000 0
ion O   0.458397492000000   0.988523688000000   0.624998122000000 0
ion O   0.958397839000000   0.488523961000000   0.124998102000000 0
ion O   0.958397446000000   0.488523702000000   0.624998180000000 0
ion O   0.958397465000000   0.988523716000000   0.124998134000000 0
ion O   0.958397472000000   0.988523621000000   0.624998166000000 0
ion O   0.291602729000000   0.238523332000000   0.124998291000000 0
ion O   0.291602717000000   0.238523368000000   0.624998839000000 0
ion O   0.291602514000000   0.738523610000000   0.124998314000000 0
ion O   0.291602759000000   0.738523674000000   0.624998850000000 0
ion O   0.791602788000000   0.238523531000000   0.124998345000000 0
ion O   0.791602814000000   0.238523541000000   0.624998837000000 0
ion O   0.791602819000000   0.738523583000000   0.124998331000000 0
ion O   0.791602838000000   0.738523537000000   0.624998782000000 0
ion O   0.208397133000000   0.261476463000000   0.375001218000000 0
ion O   0.208397152000000   0.261476417000000   0.875001677000000 0
ion O   0.208397157000000   0.761476459000000   0.375001163000000 0
ion O   0.208397183000000   0.761476469000000   0.875001663000000 0
ion O   0.708397270000000   0.261476326000000   0.375001150000000 0
ion O   0.708397515000000   0.261476390000000   0.875001694000000 0
ion O   0.708397312000000   0.761476632000000   0.375001161000000 0
ion O   0.708397300000000   0.761476668000000   0.875001717000000 0
ion-species /home/tjsmart/Pseudo/JDFTx/Fe1_pbe_v1.5.uspp
ion-species /home/tjsmart/Pseudo/JDFTx/Fe2_pbe_v1.5.uspp
ion-species /home/tjsmart/Pseudo/JDFTx/La_pbe_v1.uspp
ion-species /home/tjsmart/Pseudo/JDFTx/O_pbe_v1.2.uspp
ion-width 0
ionic-minimize  \
	dirUpdateScheme      L-BFGS \
	linminMethod         DirUpdateRecommended \
	nIterations          0 \
	history              15 \
	knormThreshold       0.0001 \
	energyDiffThreshold  1e-06 \
	nEnergyDiff          2 \
	alphaTstart          1 \
	alphaTmin            1e-10 \
	updateTestStepSize   yes \
	alphaTreduceFactor   0.1 \
	alphaTincreaseFactor 3 \
	nAlphaAdjustMax      3 \
	wolfeEnergy          0.0001 \
	wolfeGradient        0.9 \
	fdTest               no
kpoint   0.000000000000   0.000000000000   0.000000000000  1.00000000000000
kpoint-folding 2 2 1 
latt-move-scale 1 1 1
latt-scale 1 1 1 
lattice  \
	  21.140703689999999   -0.000002860000000   -0.000015996000000  \
	   0.000000000000000   21.482085860000002    0.000039991000000  \
	   0.000000000000000    0.000000000000000   30.032569615000000 
lattice-minimize  \
	dirUpdateScheme      L-BFGS \
	linminMethod         DirUpdateRecommended \
	nIterations          0 \
	history              15 \
	knormThreshold       0 \
	energyDiffThreshold  1e-06 \
	nEnergyDiff          2 \
	alphaTstart          1 \
	alphaTmin            1e-10 \
	updateTestStepSize   yes \
	alphaTreduceFactor   0.1 \
	alphaTincreaseFactor 3 \
	nAlphaAdjustMax      3 \
	wolfeEnergy          0.0001 \
	wolfeGradient        0.9 \
	fdTest               no
lcao-params -1 1e-06 0.001
pcm-variant GLSSA13
spintype z-spin
subspace-rotation-factor 1 yes
symmetries automatic
symmetry-threshold 0.0001



---------- Setting up symmetries ----------

Found 8 point-group symmetries of the bravais lattice
Found 32 space-group symmetries with basis
Applied RMS atom displacement 3.13901e-05 bohrs to make symmetries exact.

---------- Initializing the Grid ----------
R = 
[    21.1407  -2.86e-06 -1.5996e-05  ]
[          0    21.4821 3.9991e-05  ]
[          0          0    30.0326  ]
unit cell volume = 13639.2
G =
[   0.297208 3.95685e-08 1.58299e-07  ]
[          0   0.292485 -3.89469e-07  ]
[          0         -0   0.209212  ]
Minimum fftbox size, Smin = [  108  108  152  ]
Chosen fftbox size, S = [  108  108  160  ]

---------- Initializing tighter grid for wavefunction operations ----------
R = 
[    21.1407  -2.86e-06 -1.5996e-05  ]
[          0    21.4821 3.9991e-05  ]
[          0          0    30.0326  ]
unit cell volume = 13639.2
G =
[   0.297208 3.95685e-08 1.58299e-07  ]
[          0   0.292485 -3.89469e-07  ]
[          0         -0   0.209212  ]
Minimum fftbox size, Smin = [  88  88  124  ]
Chosen fftbox size, S = [  90  90  126  ]

---------- Exchange Correlation functional ----------
Initalized PBE GGA exchange.
Initalized PBE GGA correlation.

---------- Setting up pseudopotentials ----------
Width of ionic core gaussian charges (only for fluid interactions / plotting) set to 0

Reading pseudopotential file '/home/tjsmart/Pseudo/JDFTx/Fe1_pbe_v1.5.uspp':
  Title: Fe.  Created by USPP 7.3.6 on 15-6-15
  Reference state energy: -124.316937.  16 valence electrons in orbitals:
    |300>  occupation: 2  eigenvalue: -4.008817
    |310>  occupation: 6  eigenvalue: -2.753096
    |320>  occupation: 5  eigenvalue: -0.791264
    |400>  occupation: 2  eigenvalue: -0.516384
    |410>  occupation: 0  eigenvalue: -0.312222
  lMax: 2  lLocal: 3  QijEcut: 6
  6 projectors sampled on a log grid with 607 points:
    l: 0  eig: -4.008819  rCut: 1.55
    l: 0  eig: -0.516386  rCut: 1.55
    l: 1  eig: -2.753096  rCut: 1.55
    l: 1  eig: -0.312226  rCut: 1.55
    l: 2  eig: -0.791264  rCut: 1.65
    l: 2  eig: -0.450000  rCut: 1.65
  Partial core density with radius 0.65
  Transforming core density to a uniform radial grid of dG=0.02 with 1408 points.
  Transforming local potential to a uniform radial grid of dG=0.02 with 1408 points.
  Transforming nonlocal projectors to a uniform radial grid of dG=0.02 with 432 points.
  Transforming density augmentations to a uniform radial grid of dG=0.02 with 1408 points.
  Transforming atomic orbitals to a uniform radial grid of dG=0.02 with 432 points.
  Transforming overlap'd orbitals to a uniform radial grid of dG=0.02 with 432 points.
  Core radius for overlap checks: 1.65 bohrs.

Reading pseudopotential file '/home/tjsmart/Pseudo/JDFTx/Fe2_pbe_v1.5.uspp':
  Title: Fe.  Created by USPP 7.3.6 on 15-6-15
  Reference state energy: -124.316937.  16 valence electrons in orbitals:
    |300>  occupation: 2  eigenvalue: -4.008817
    |310>  occupation: 6  eigenvalue: -2.753096
    |320>  occupation: 5  eigenvalue: -0.791264
    |400>  occupation: 2  eigenvalue: -0.516384
    |410>  occupation: 0  eigenvalue: -0.312222
  lMax: 2  lLocal: 3  QijEcut: 6
  6 projectors sampled on a log grid with 607 points:
    l: 0  eig: -4.008819  rCut: 1.55
    l: 0  eig: -0.516386  rCut: 1.55
    l: 1  eig: -2.753096  rCut: 1.55
    l: 1  eig: -0.312226  rCut: 1.55
    l: 2  eig: -0.791264  rCut: 1.65
    l: 2  eig: -0.450000  rCut: 1.65
  Partial core density with radius 0.65
  Transforming core density to a uniform radial grid of dG=0.02 with 1408 points.
  Transforming local potential to a uniform radial grid of dG=0.02 with 1408 points.
  Transforming nonlocal projectors to a uniform radial grid of dG=0.02 with 432 points.
  Transforming density augmentations to a uniform radial grid of dG=0.02 with 1408 points.
  Transforming atomic orbitals to a uniform radial grid of dG=0.02 with 432 points.
  Transforming overlap'd orbitals to a uniform radial grid of dG=0.02 with 432 points.
  Core radius for overlap checks: 1.65 bohrs.

Reading pseudopotential file '/home/tjsmart/Pseudo/JDFTx/La_pbe_v1.uspp':
  Title: La.  Created by USPP 7.3.6 on 14-9-2013
  Reference state energy: -51.063618.  11 valence electrons in orbitals:
    |500>  occupation: 2  eigenvalue: -1.451142
    |510>  occupation: 6  eigenvalue: -0.843691
    |520>  occupation: 1  eigenvalue: -0.130012
    |600>  occupation: 1.5  eigenvalue: -0.146765
    |610>  occupation: 0.5  eigenvalue: -0.059369
    |430>  occupation: 0  eigenvalue: -0.180348
  lMax: 3  lLocal: -1  QijEcut: 5
  8 projectors sampled on a log grid with 665 points:
    l: 0  eig: -1.451139  rCut: 1.7
    l: 0  eig: -0.146766  rCut: 1.7
    l: 1  eig: -0.843687  rCut: 1.9
    l: 1  eig: -0.059370  rCut: 1.9
    l: 2  eig: -0.130014  rCut: 2
    l: 2  eig: 1.000000  rCut: 2
    l: 3  eig: -0.180352  rCut: 2
    l: 3  eig: -1.000000  rCut: 2
  Partial core density with radius 1.3
  Transforming core density to a uniform radial grid of dG=0.02 with 1408 points.
  Transforming local potential to a uniform radial grid of dG=0.02 with 1408 points.
  Transforming nonlocal projectors to a uniform radial grid of dG=0.02 with 432 points.
  Transforming density augmentations to a uniform radial grid of dG=0.02 with 1408 points.
  Transforming atomic orbitals to a uniform radial grid of dG=0.02 with 432 points.
  Transforming overlap'd orbitals to a uniform radial grid of dG=0.02 with 432 points.
  Core radius for overlap checks: 2.00 bohrs.

Reading pseudopotential file '/home/tjsmart/Pseudo/JDFTx/O_pbe_v1.2.uspp':
  Title: O.  Created by USPP 7.3.6 on 3-2-2014
  Reference state energy: -15.894388.  6 valence electrons in orbitals:
    |200>  occupation: 2  eigenvalue: -0.878823
    |210>  occupation: 4  eigenvalue: -0.332131
  lMax: 2  lLocal: 2  QijEcut: 6
  5 projectors sampled on a log grid with 511 points:
    l: 0  eig: -0.878823  rCut: 1.25
    l: 0  eig: 0.000000  rCut: 1.25
    l: 1  eig: -0.332132  rCut: 1.25
    l: 1  eig: 0.000000  rCut: 1.25
    l: 2  eig: 1.000000  rCut: 1.25
  Partial core density with radius 0.7
  Transforming core density to a uniform radial grid of dG=0.02 with 1408 points.
  Transforming local potential to a uniform radial grid of dG=0.02 with 1408 points.
  Transforming nonlocal projectors to a uniform radial grid of dG=0.02 with 432 points.
  Transforming density augmentations to a uniform radial grid of dG=0.02 with 1408 points.
  Transforming atomic orbitals to a uniform radial grid of dG=0.02 with 432 points.
  Transforming overlap'd orbitals to a uniform radial grid of dG=0.02 with 432 points.
  Core radius for overlap checks: 1.25 bohrs.

Folded 1 k-points by 2x2x1 to 4 k-points.

---------- Setting up k-points, bands, fillings ----------
No reducable k-points. 
Computing the number of bands and number of electrons
Calculating initial fillings.
nElectrons: 1440.000000   nBands: 720   nStates: 8

----- Setting up reduced wavefunction bases (one per k-point) -----
average nbasis = 58269.750 , ideal nbasis = 58267.632

---------- Setting up ewald sum ----------
Optimum gaussian width for ewald sums = 4.090906 bohr.
Real space sum over 343 unit cells with max indices [  3  3  3  ]
Reciprocal space sum over 9747 terms with max indices [  9  9  13  ]

---------- Allocating electronic variables ----------
Initializing wave functions:  linear combination of atomic orbitals
Fe1 (M=5) pseudo-atom majority spin occupations:   s ( 1 1 )  p ( 3 0.5 )  d ( 5 )
Fe1 (M=5) pseudo-atom minority spin occupations:   s ( 1 0 )  p ( 3 0 )  d ( 1.5 )
Fe2 (M=5) pseudo-atom majority spin occupations:   s ( 1 1 )  p ( 3 0.5 )  d ( 5 )
Fe2 (M=5) pseudo-atom minority spin occupations:   s ( 1 0 )  p ( 3 0 )  d ( 1.5 )
La pseudo-atom occupations:   s ( 2 0 )  p ( 6 0 )  d ( 0 )  f ( 3 )
O pseudo-atom occupations:   s ( 2 )  p ( 4 )
	FillingsUpdate:  mu: +0.256838141  nElectrons: 1440.000000  magneticMoment: [ Abs: 121.34998  Tot: -0.00000 ]
LCAOMinimize: Iter:   0  Etot: -6380.6945427203800136  |grad|_K:  1.021e-02  alpha:  1.000e+00
	FillingsUpdate:  mu: +0.358812924  nElectrons: 1440.000000  magneticMoment: [ Abs: 147.67818  Tot: -0.00000 ]
LCAOMinimize: Iter:   1  Etot: -6514.7758383007330849  |grad|_K:  2.691e-03  alpha:  2.149e-01  linmin: -3.266e-01  cgtest:  9.484e-01  t[s]:    676.12
LCAOMinimize: Encountered beta<0, resetting CG.
	FillingsUpdate:  mu: +0.508625370  nElectrons: 1440.000000  magneticMoment: [ Abs: 130.22129  Tot: -0.00000 ]
LCAOMinimize: Iter:   2  Etot: -6536.8294012434835167  |grad|_K:  1.486e-03  alpha:  4.083e-01  linmin:  7.800e-02  cgtest: -1.300e-01  t[s]:    937.33
	FillingsUpdate:  mu: +0.549875355  nElectrons: 1440.000000  magneticMoment: [ Abs: 138.42444  Tot: +0.00000 ]
LCAOMinimize: Iter:   3  Etot: -6539.0049374111513316  |grad|_K:  8.635e-04  alpha:  1.867e-01  linmin: -1.338e-02  cgtest:  9.559e-01  t[s]:   1194.37
LCAOMinimize: Encountered beta<0, resetting CG.
LCAOMinimize: None of the convergence criteria satisfied after 3 iterations.


---- Citations for features of the code used in this run ----

   Software package:
      R. Sundararaman, K. Letchworth-Weaver, K.A. Schwarz, D. Gunceler, Y. Ozhabes and T.A. Arias, 'JDFTx: software for joint density-functional theory', SoftwareX 6, 278 (2017)

   Simplified rotationally-invariant DFT+U:
      S. L. Dudarev et al., Phys. Rev. B 57, 1505 (1998)

   gga-PBE exchange-correlation functional:
      J.P. Perdew, K. Burke and M. Ernzerhof, Phys. Rev. Lett. 77, 3865 (1996)

   Smooth electrostatic potentials by atom-potential subtraction:
      R. Sundararaman and Y. Ping, J. Chem. Phys. 146, 104109 (2017)

This list may not be complete. Please suggest additional citations or
report any other bugs at https://github.com/shankar1729/jdftx/issues

Initialization completed successfully at t[s]:   1226.30


-------- Electronic minimization -----------
Will mix electronic density at each iteration.
SCF: Cycle:  0   Etot: -6541.860308838281526   dEtot: -2.855e+00   |Residual|: 2.178e+00   |deigs|: 6.912e-03  t[s]:   1691.37
SCF: Cycle:  1   Etot: -6544.812823914430737   dEtot: -2.953e+00   |Residual|: 7.305e-01   |deigs|: 5.963e-02  t[s]:   2038.29
SCF: Cycle:  2   Etot: -6544.891987688955851   dEtot: -7.916e-02   |Residual|: 3.470e-01   |deigs|: 4.433e-03  t[s]:   2376.21
SCF: Cycle:  3   Etot: -6544.918110459388117   dEtot: -2.612e-02   |Residual|: 1.656e-01   |deigs|: 4.990e-03  t[s]:   2717.50
SCF: Cycle:  4   Etot: -6544.922224814515175   dEtot: -4.114e-03   |Residual|: 6.262e-02   |deigs|: 2.738e-03  t[s]:   3062.80
SCF: Cycle:  5   Etot: -6544.925155797536718   dEtot: -2.931e-03   |Residual|: 2.790e-02   |deigs|: 1.257e-03  t[s]:   3413.39
SCF: Cycle:  6   Etot: -6544.925151143591393   dEtot: +4.654e-06   |Residual|: 2.730e-02   |deigs|: 3.179e-04  t[s]:   3753.65
SCF: Cycle:  7   Etot: -6544.925430164539648   dEtot: -2.790e-04   |Residual|: 1.009e-02   |deigs|: 3.854e-04  t[s]:   4092.98
SCF: Cycle:  8   Etot: -6544.925456008749279   dEtot: -2.584e-05   |Residual|: 5.299e-03   |deigs|: 1.673e-04  t[s]:   4434.31
SCF: Cycle:  9   Etot: -6544.925461749049646   dEtot: -5.740e-06   |Residual|: 2.479e-03   |deigs|: 6.673e-05  t[s]:   4680.66
SCF: Cycle: 10   Etot: -6544.925465672374230   dEtot: -3.923e-06   |Residual|: 8.032e-04   |deigs|: 5.070e-05  t[s]:   4925.85
SCF: Cycle: 11   Etot: -6544.925466997277908   dEtot: -1.325e-06   |Residual|: 6.361e-04   |deigs|: 1.626e-05  t[s]:   5172.21
SCF: Cycle: 12   Etot: -6544.925467939843656   dEtot: -9.426e-07   |Residual|: 5.311e-04   |deigs|: 1.575e-05  t[s]:   5416.80
SCF: Cycle: 13   Etot: -6544.925468566856580   dEtot: -6.270e-07   |Residual|: 5.087e-04   |deigs|: 3.442e-06  t[s]:   5661.96
SCF: Cycle: 14   Etot: -6544.925468917003855   dEtot: -3.501e-07   |Residual|: 7.199e-04   |deigs|: 2.925e-07  t[s]:   5908.18
SCF: Cycle: 15   Etot: -6544.925469179759602   dEtot: -2.628e-07   |Residual|: 1.186e-03   |deigs|: 4.229e-06  t[s]:   6155.62
SCF: Cycle: 16   Etot: -6544.925469319938202   dEtot: -1.402e-07   |Residual|: 1.625e-03   |deigs|: 5.728e-06  t[s]:   6400.56
SCF: Cycle: 17   Etot: -6544.925469744025577   dEtot: -4.241e-07   |Residual|: 1.661e-03   |deigs|: 1.558e-05  t[s]:   6738.47
SCF: Cycle: 18   Etot: -6544.925469785841415   dEtot: -4.182e-08   |Residual|: 1.570e-03   |deigs|: 5.506e-07  t[s]:   6983.75
SCF: Cycle: 19   Etot: -6544.925469807675654   dEtot: -2.183e-08   |Residual|: 1.534e-03   |deigs|: 1.305e-07  t[s]:   7238.75
SCF: Converged (|Delta E|<1.000000e-07 for 2 iters).


# Ionic positions in lattice coordinates:
ion Fe1  -0.000000000450000   0.000000001425000  -0.000000002750000 0
ion Fe1  -0.000000000450000   0.000000001425000   0.499999997250000 0
ion Fe1  -0.000000000450000   0.500000001425000  -0.000000002750000 0
ion Fe1  -0.000000000450000   0.500000001425000   0.499999997250000 0
ion Fe1   0.499999999550000   0.000000001425000  -0.000000002750000 0
ion Fe1   0.499999999550000   0.000000001425000   0.499999997250000 0
ion Fe1   0.499999999550000   0.500000001425000  -0.000000002750000 0
ion Fe1   0.499999999550000   0.500000001425000   0.499999997250000 0
ion Fe1   0.249999999550000   0.250000001425000   0.249999997250000 0
ion Fe1   0.249999999550000   0.250000001425000   0.749999997250000 0
ion Fe1   0.249999999550000   0.750000001425000   0.249999997250000 0
ion Fe1   0.249999999550000   0.750000001425000   0.749999997250000 0
ion Fe1   0.749999999550000   0.250000001425000   0.249999997250000 0
ion Fe1   0.749999999550000   0.250000001425000   0.749999997250000 0
ion Fe1   0.749999999550000   0.750000001425000   0.249999997250000 0
ion Fe1   0.749999999550000   0.750000001425000   0.749999997250000 0
ion Fe2   0.249999999550000   0.250000001425000  -0.000000002750000 0
ion Fe2   0.249999999550000   0.250000001425000   0.499999997250000 0
ion Fe2   0.249999999550000   0.750000001425000  -0.000000002750000 0
ion Fe2   0.249999999550000   0.750000001425000   0.499999997250000 0
ion Fe2   0.749999999550000   0.250000001425000  -0.000000002750000 0
ion Fe2   0.749999999550000   0.250000001425000   0.499999997250000 0
ion Fe2   0.749999999550000   0.750000001425000  -0.000000002750000 0
ion Fe2   0.749999999550000   0.750000001425000   0.499999997250000 0
ion Fe2  -0.000000000450000   0.000000001425000   0.249999997250000 0
ion Fe2  -0.000000000450000   0.000000001425000   0.749999997250000 0
ion Fe2  -0.000000000450000   0.500000001425000   0.249999997250000 0
ion Fe2  -0.000000000450000   0.500000001425000   0.749999997250000 0
ion Fe2   0.499999999550000   0.000000001425000   0.249999997250000 0
ion Fe2   0.499999999550000   0.000000001425000   0.749999997250000 0
ion Fe2   0.499999999550000   0.500000001425000   0.249999997250000 0
ion Fe2   0.499999999550000   0.500000001425000   0.749999997250000 0
ion La   0.245262192175000   0.020952491737500   0.124999992375000 0
ion La   0.245262192175000   0.020952491737500   0.624999992375000 0
ion La   0.245262192175000   0.520952491737500   0.124999992375000 0
ion La   0.245262192175000   0.520952491737500   0.624999992375000 0
ion La   0.745262192175000   0.020952491737500   0.124999992375000 0
ion La   0.745262192175000   0.020952491737500   0.624999992375000 0
ion La   0.745262192175000   0.520952491737500   0.124999992375000 0
ion La   0.745262192175000   0.520952491737500   0.624999992375000 0
ion La   0.254737806925000   0.479047511112500   0.375000002125000 0
ion La   0.254737806925000   0.479047511112500   0.875000002125000 0
ion La   0.254737806925000   0.979047511112500   0.375000002125000 0
ion La   0.254737806925000   0.979047511112500   0.875000002125000 0
ion La   0.754737806925000   0.479047511112500   0.375000002125000 0
ion La   0.754737806925000   0.479047511112500   0.875000002125000 0
ion La   0.754737806925000   0.979047511112500   0.375000002125000 0
ion La   0.754737806925000   0.979047511112500   0.875000002125000 0
ion La   0.495262192175000   0.229047511112500   0.374999992375000 0
ion La   0.495262192175000   0.229047511112500   0.874999992375000 0
ion La   0.495262192175000   0.729047511112500   0.374999992375000 0
ion La   0.495262192175000   0.729047511112500   0.874999992375000 0
ion La   0.995262192175000   0.229047511112500   0.374999992375000 0
ion La   0.995262192175000   0.229047511112500   0.874999992375000 0
ion La   0.995262192175000   0.729047511112500   0.374999992375000 0
ion La   0.995262192175000   0.729047511112500   0.874999992375000 0
ion La   0.004737806925000   0.270952491737500   0.125000002125000 0
ion La   0.004737806925000   0.270952491737500   0.625000002125000 0
ion La   0.004737806925000   0.770952491737500   0.125000002125000 0
ion La   0.004737806925000   0.770952491737500   0.625000002125000 0
ion La   0.504737806925000   0.270952491737500   0.125000002125000 0
ion La   0.504737806925000   0.270952491737500   0.625000002125000 0
ion La   0.504737806925000   0.770952491737500   0.125000002125000 0
ion La   0.504737806925000   0.770952491737500   0.625000002125000 0
ion O   0.355433211800000   0.105231272925000   0.272287356562500 0
ion O   0.355433211800000   0.105231272925000   0.772287356562500 0
ion O   0.355433211800000   0.605231272925000   0.272287356562500 0
ion O   0.355433211800000   0.605231272925000   0.772287356562500 0
ion O   0.855433211800000   0.105231272925000   0.272287356562500 0
ion O   0.855433211800000   0.105231272925000   0.772287356562500 0
ion O   0.855433211800000   0.605231272925000   0.272287356562500 0
ion O   0.855433211800000   0.605231272925000   0.772287356562500 0
ion O   0.144566787300000   0.394768729925000   0.227712637937500 0
ion O   0.144566787300000   0.394768729925000   0.727712637937500 0
ion O   0.144566787300000   0.894768729925000   0.227712637937500 0
ion O   0.144566787300000   0.894768729925000   0.727712637937500 0
ion O   0.644566787300000   0.394768729925000   0.227712637937500 0
ion O   0.644566787300000   0.394768729925000   0.727712637937500 0
ion O   0.644566787300000   0.894768729925000   0.227712637937500 0
ion O   0.644566787300000   0.894768729925000   0.727712637937500 0
ion O   0.105433558987500   0.144769107987500   0.227712636437500 0
ion O   0.105433558987500   0.144769107987500   0.727712636437500 0
ion O   0.105433558987500   0.644769107987500   0.227712636437500 0
ion O   0.105433558987500   0.644769107987500   0.727712636437500 0
ion O   0.605433558987500   0.144769107987500   0.227712636437500 0
ion O   0.605433558987500   0.144769107987500   0.727712636437500 0
ion O   0.605433558987500   0.644769107987500   0.227712636437500 0
ion O   0.605433558987500   0.644769107987500   0.727712636437500 0
ion O   0.394566440112500   0.355230894862500   0.272287358062500 0
ion O   0.394566440112500   0.355230894862500   0.772287358062500 0
ion O   0.394566440112500   0.855230894862500   0.272287358062500 0
ion O   0.394566440112500   0.855230894862500   0.772287358062500 0
ion O   0.894566440112500   0.355230894862500   0.272287358062500 0
ion O   0.894566440112500   0.355230894862500   0.772287358062500 0
ion O   0.894566440112500   0.855230894862500   0.272287358062500 0
ion O   0.894566440112500   0.855230894862500   0.772287358062500 0
ion O   0.394566787300000   0.355231272925000   0.477712637937500 0
ion O   0.394566787300000   0.355231272925000   0.977712637937500 0
ion O   0.394566787300000   0.855231272925000   0.477712637937500 0
ion O   0.394566787300000   0.855231272925000   0.977712637937500 0
ion O   0.894566787300000   0.355231272925000   0.477712637937500 0
ion O   0.894566787300000   0.355231272925000   0.977712637937500 0
ion O   0.894566787300000   0.855231272925000   0.477712637937500 0
ion O   0.894566787300000   0.855231272925000   0.977712637937500 0
ion O   0.105433211800000   0.144768729925000   0.022287356562500 0
ion O   0.105433211800000   0.144768729925000   0.522287356562500 0
ion O   0.105433211800000   0.644768729925000   0.022287356562500 0
ion O   0.105433211800000   0.644768729925000   0.522287356562500 0
ion O   0.605433211800000   0.144768729925000   0.022287356562500 0
ion O   0.605433211800000   0.144768729925000   0.522287356562500 0
ion O   0.605433211800000   0.644768729925000   0.022287356562500 0
ion O   0.605433211800000   0.644768729925000   0.522287356562500 0
ion O   0.144566440112500   0.394769107987500   0.022287358062500 0
ion O   0.144566440112500   0.394769107987500   0.522287358062500 0
ion O   0.144566440112500   0.894769107987500   0.022287358062500 0
ion O   0.144566440112500   0.894769107987500   0.522287358062500 0
ion O   0.644566440112500   0.394769107987500   0.022287358062500 0
ion O   0.644566440112500   0.394769107987500   0.522287358062500 0
ion O   0.644566440112500   0.894769107987500   0.022287358062500 0
ion O   0.644566440112500   0.894769107987500   0.522287358062500 0
ion O   0.355433558987500   0.105230894862500   0.477712636437500 0
ion O   0.355433558987500   0.105230894862500   0.977712636437500 0
ion O   0.355433558987500   0.605230894862500   0.477712636437500 0
ion O   0.355433558987500   0.605230894862500   0.977712636437500 0
ion O   0.855433558987500   0.105230894862500   0.477712636437500 0
ion O   0.855433558987500   0.105230894862500   0.977712636437500 0
ion O   0.855433558987500   0.605230894862500   0.477712636437500 0
ion O   0.855433558987500   0.605230894862500   0.977712636437500 0
ion O   0.041602643925000   0.011476385800000   0.375000204250000 0
ion O   0.041602643925000   0.011476385800000   0.875000204250000 0
ion O   0.041602643925000   0.511476385800000   0.375000204250000 0
ion O   0.041602643925000   0.511476385800000   0.875000204250000 0
ion O   0.541602643925000   0.011476385800000   0.375000204250000 0
ion O   0.541602643925000   0.011476385800000   0.875000204250000 0
ion O   0.541602643925000   0.511476385800000   0.375000204250000 0
ion O   0.541602643925000   0.511476385800000   0.875000204250000 0
ion O   0.458397355175000   0.488523617050000   0.124999790250000 0
ion O   0.458397355175000   0.488523617050000   0.624999790250000 0
ion O   0.458397355175000   0.988523617050000   0.124999790250000 0
ion O   0.458397355175000   0.988523617050000   0.624999790250000 0
ion O   0.958397355175000   0.488523617050000   0.124999790250000 0
ion O   0.958397355175000   0.488523617050000   0.624999790250000 0
ion O   0.958397355175000   0.988523617050000   0.124999790250000 0
ion O   0.958397355175000   0.988523617050000   0.624999790250000 0
ion O   0.291602643925000   0.238523617050000   0.125000204250000 0
ion O   0.291602643925000   0.238523617050000   0.625000204250000 0
ion O   0.291602643925000   0.738523617050000   0.125000204250000 0
ion O   0.291602643925000   0.738523617050000   0.625000204250000 0
ion O   0.791602643925000   0.238523617050000   0.125000204250000 0
ion O   0.791602643925000   0.238523617050000   0.625000204250000 0
ion O   0.791602643925000   0.738523617050000   0.125000204250000 0
ion O   0.791602643925000   0.738523617050000   0.625000204250000 0
ion O   0.208397355175000   0.261476385800000   0.374999790250000 0
ion O   0.208397355175000   0.261476385800000   0.874999790250000 0
ion O   0.208397355175000   0.761476385800000   0.374999790250000 0
ion O   0.208397355175000   0.761476385800000   0.874999790250000 0
ion O   0.708397355175000   0.261476385800000   0.374999790250000 0
ion O   0.708397355175000   0.261476385800000   0.874999790250000 0
ion O   0.708397355175000   0.761476385800000   0.374999790250000 0
ion O   0.708397355175000   0.761476385800000   0.874999790250000 0


# Forces in Lattice coordinates:
force Fe1  -0.000000000000000   0.000000000000000  -0.000000000000000 0
force Fe1  -0.000000000000000   0.000000000000000   0.000000000000000 0
force Fe1   0.000000000000000  -0.000000000000000   0.000000000000000 0
force Fe1  -0.000000000000000  -0.000000000000000   0.000000000000000 0
force Fe1  -0.000000000000000  -0.000000000000000   0.000000000000000 0
force Fe1   0.000000000000000  -0.000000000000000  -0.000000000000000 0
force Fe1  -0.000000000000000  -0.000000000000000   0.000000000000000 0
force Fe1   0.000000000000000   0.000000000000000  -0.000000000000000 0
force Fe1   0.000000000000000   0.000000000000000  -0.000000000000000 0
force Fe1  -0.000000000000000   0.000000000000000   0.000000000000000 0
force Fe1  -0.000000000000000   0.000000000000000  -0.000000000000000 0
force Fe1  -0.000000000000000  -0.000000000000000   0.000000000000000 0
force Fe1   0.000000000000000   0.000000000000000  -0.000000000000000 0
force Fe1   0.000000000000000   0.000000000000000  -0.000000000000000 0
force Fe1  -0.000000000000000   0.000000000000000  -0.000000000000000 0
force Fe1   0.000000000000000   0.000000000000000  -0.000000000000000 0
force Fe2   0.000000000000000   0.000000000000000   0.000000000000000 0
force Fe2  -0.000000000000000  -0.000000000000000   0.000000000000000 0
force Fe2  -0.000000000000000  -0.000000000000000   0.000000000000000 0
force Fe2  -0.000000000000000  -0.000000000000000  -0.000000000000000 0
force Fe2  -0.000000000000000   0.000000000000000   0.000000000000000 0
force Fe2  -0.000000000000000   0.000000000000000  -0.000000000000000 0
force Fe2  -0.000000000000000   0.000000000000000  -0.000000000000000 0
force Fe2   0.000000000000000  -0.000000000000000   0.000000000000000 0
force Fe2  -0.000000000000000  -0.000000000000000  -0.000000000000000 0
force Fe2  -0.000000000000000  -0.000000000000000   0.000000000000000 0
force Fe2   0.000000000000000   0.000000000000000  -0.000000000000000 0
force Fe2   0.000000000000000   0.000000000000000  -0.000000000000000 0
force Fe2  -0.000000000000000   0.000000000000000  -0.000000000000000 0
force Fe2   0.000000000000000  -0.000000000000000  -0.000000000000000 0
force Fe2   0.000000000000000   0.000000000000000  -0.000000000000000 0
force Fe2   0.000000000000000  -0.000000000000000  -0.000000000000000 0
force La   0.001076519130256  -0.005540041724016   0.000007181420931 0
force La   0.001076519130256  -0.005540041724012   0.000007181420931 0
force La   0.001076519130256  -0.005540041724012   0.000007181420931 0
force La   0.001076519130258  -0.005540041724019   0.000007181420931 0
force La   0.001076519130256  -0.005540041724016   0.000007181420931 0
force La   0.001076519130256  -0.005540041724019   0.000007181420931 0
force La   0.001076519130256  -0.005540041724009   0.000007181420931 0
force La   0.001076519130254  -0.005540041724012   0.000007181420931 0
force La  -0.001076519130258   0.005540041724019  -0.000007181420931 0
force La  -0.001076519130258   0.005540041724019  -0.000007181420931 0
force La  -0.001076519130260   0.005540041724012  -0.000007181420931 0
force La  -0.001076519130260   0.005540041724016  -0.000007181420931 0
force La  -0.001076519130254   0.005540041724016  -0.000007181420931 0
force La  -0.001076519130254   0.005540041724023  -0.000007181420931 0
force La  -0.001076519130256   0.005540041724016  -0.000007181420931 0
force La  -0.001076519130258   0.005540041724016  -0.000007181420931 0
force La   0.001076519130260   0.005540041724023   0.000007181420931 0
force La   0.001076519130258   0.005540041724026   0.000007181420931 0
force La   0.001076519130256   0.005540041724016   0.000007181420931 0
force La   0.001076519130258   0.005540041724023   0.000007181420931 0
force La   0.001076519130254   0.005540041724016   0.000007181420931 0
force La   0.001076519130253   0.005540041724019   0.000007181420931 0
force La   0.001076519130258   0.005540041724023   0.000007181420931 0
force La   0.001076519130254   0.005540041724023   0.000007181420931 0
force La  -0.001076519130254  -0.005540041724023  -0.000007181420931 0
force La  -0.001076519130256  -0.005540041724019  -0.000007181420931 0
force La  -0.001076519130251  -0.005540041724023  -0.000007181420931 0
force La  -0.001076519130253  -0.005540041724026  -0.000007181420931 0
force La  -0.001076519130254  -0.005540041724012  -0.000007181420931 0
force La  -0.001076519130253  -0.005540041724019  -0.000007181420931 0
force La  -0.001076519130253  -0.005540041724012  -0.000007181420931 0
force La  -0.001076519130251  -0.005540041724019  -0.000007181420931 0
force O  -0.020168660107453   0.039358275940378  -0.092878991292519 0
force O  -0.020168660107453   0.039358275940378  -0.092878991292523 0
force O  -0.020168660107453   0.039358275940381  -0.092878991292523 0
force O  -0.020168660107449   0.039358275940380  -0.092878991292519 0
force O  -0.020168660107460   0.039358275940381  -0.092878991292519 0
force O  -0.020168660107453   0.039358275940381  -0.092878991292516 0
force O  -0.020168660107453   0.039358275940380  -0.092878991292519 0
force O  -0.020168660107453   0.039358275940381  -0.092878991292523 0
force O   0.020168660107456  -0.039358275940374   0.092878991292516 0
force O   0.020168660107456  -0.039358275940376   0.092878991292516 0
force O   0.020168660107456  -0.039358275940376   0.092878991292512 0
force O   0.020168660107456  -0.039358275940376   0.092878991292516 0
force O   0.020168660107456  -0.039358275940378   0.092878991292512 0
force O   0.020168660107456  -0.039358275940378   0.092878991292516 0
force O   0.020168660107456  -0.039358275940380   0.092878991292512 0
force O   0.020168660107456  -0.039358275940380   0.092878991292519 0
force O  -0.007218153435885  -0.041513499378793   0.092891538183430 0
force O  -0.007218153435892  -0.041513499378790   0.092891538183420 0
force O  -0.007218153435892  -0.041513499378790   0.092891538183419 0
force O  -0.007218153435896  -0.041513499378795   0.092891538183423 0
force O  -0.007218153435896  -0.041513499378793   0.092891538183423 0
force O  -0.007218153435892  -0.041513499378795   0.092891538183423 0
force O  -0.007218153435892  -0.041513499378793   0.092891538183427 0
force O  -0.007218153435892  -0.041513499378795   0.092891538183416 0
force O   0.007218153435896   0.041513499378791  -0.092891538183419 0
force O   0.007218153435896   0.041513499378790  -0.092891538183416 0
force O   0.007218153435889   0.041513499378791  -0.092891538183420 0
force O   0.007218153435889   0.041513499378790  -0.092891538183420 0
force O   0.007218153435889   0.041513499378791  -0.092891538183419 0
force O   0.007218153435892   0.041513499378791  -0.092891538183416 0
force O   0.007218153435892   0.041513499378791  -0.092891538183427 0
force O   0.007218153435892   0.041513499378791  -0.092891538183419 0
force O   0.020168660107456   0.039358275940383   0.092878991292519 0
force O   0.020168660107453   0.039358275940385   0.092878991292523 0
force O   0.020168660107449   0.039358275940383   0.092878991292519 0
force O   0.020168660107453   0.039358275940383   0.092878991292519 0
force O   0.020168660107456   0.039358275940381   0.092878991292519 0
force O   0.020168660107453   0.039358275940381   0.092878991292519 0
force O   0.020168660107456   0.039358275940381   0.092878991292519 0
force O   0.020168660107453   0.039358275940381   0.092878991292512 0
force O  -0.020168660107449  -0.039358275940383  -0.092878991292526 0
force O  -0.020168660107453  -0.039358275940383  -0.092878991292523 0
force O  -0.020168660107460  -0.039358275940383  -0.092878991292530 0
force O  -0.020168660107456  -0.039358275940385  -0.092878991292526 0
force O  -0.020168660107453  -0.039358275940383  -0.092878991292526 0
force O  -0.020168660107456  -0.039358275940385  -0.092878991292516 0
force O  -0.020168660107453  -0.039358275940383  -0.092878991292519 0
force O  -0.020168660107453  -0.039358275940383  -0.092878991292519 0
force O   0.007218153435896  -0.041513499378790  -0.092891538183409 0
force O   0.007218153435892  -0.041513499378788  -0.092891538183405 0
force O   0.007218153435896  -0.041513499378788  -0.092891538183402 0
force O   0.007218153435892  -0.041513499378790  -0.092891538183412 0
force O   0.007218153435896  -0.041513499378788  -0.092891538183402 0
force O   0.007218153435896  -0.041513499378790  -0.092891538183412 0
force O   0.007218153435885  -0.041513499378788  -0.092891538183398 0
force O   0.007218153435892  -0.041513499378790  -0.092891538183405 0
force O  -0.007218153435892   0.041513499378790   0.092891538183420 0
force O  -0.007218153435892   0.041513499378788   0.092891538183419 0
force O  -0.007218153435896   0.041513499378790   0.092891538183412 0
force O  -0.007218153435896   0.041513499378788   0.092891538183416 0
force O  -0.007218153435889   0.041513499378788   0.092891538183409 0
force O  -0.007218153435896   0.041513499378786   0.092891538183416 0
force O  -0.007218153435892   0.041513499378786   0.092891538183419 0
force O  -0.007218153435896   0.041513499378786   0.092891538183409 0
force O  -0.051439950981788  -0.119050213154418  -0.000000366497917 0
force O  -0.051439950981785  -0.119050213154419  -0.000000366497917 0
force O  -0.051439950981785  -0.119050213154418  -0.000000366497917 0
force O  -0.051439950981781  -0.119050213154418  -0.000000366497917 0
force O  -0.051439950981785  -0.119050213154418  -0.000000366497917 0
force O  -0.051439950981781  -0.119050213154418  -0.000000366497917 0
force O  -0.051439950981782  -0.119050213154419  -0.000000366497917 0
force O  -0.051439950981782  -0.119050213154418  -0.000000366497917 0
force O   0.051439950981781   0.119050213154417   0.000000366497917 0
force O   0.051439950981781   0.119050213154417   0.000000366497917 0
force O   0.051439950981785   0.119050213154418   0.000000366497917 0
force O   0.051439950981785   0.119050213154418   0.000000366497917 0
force O   0.051439950981785   0.119050213154418   0.000000366497917 0
force O   0.051439950981789   0.119050213154418   0.000000366497917 0
force O   0.051439950981785   0.119050213154417   0.000000366497917 0
force O   0.051439950981778   0.119050213154418   0.000000366497917 0
force O  -0.051439950981788   0.119050213154419  -0.000000366497917 0
force O  -0.051439950981785   0.119050213154419  -0.000000366497917 0
force O  -0.051439950981788   0.119050213154419  -0.000000366497917 0
force O  -0.051439950981792   0.119050213154419  -0.000000366497917 0
force O  -0.051439950981788   0.119050213154418  -0.000000366497917 0
force O  -0.051439950981781   0.119050213154419  -0.000000366497917 0
force O  -0.051439950981788   0.119050213154419  -0.000000366497917 0
force O  -0.051439950981785   0.119050213154418  -0.000000366497917 0
force O   0.051439950981785  -0.119050213154418   0.000000366497917 0
force O   0.051439950981792  -0.119050213154418   0.000000366497917 0
force O   0.051439950981789  -0.119050213154418   0.000000366497917 0
force O   0.051439950981789  -0.119050213154419   0.000000366497917 0
force O   0.051439950981785  -0.119050213154419   0.000000366497917 0
force O   0.051439950981789  -0.119050213154419   0.000000366497917 0
force O   0.051439950981785  -0.119050213154418   0.000000366497917 0
force O   0.051439950981781  -0.119050213154419   0.000000366497917 0

# Energy components:
   Eewald =    -4448.4909941889900438
       EH =     1994.4210279389155858
     Eloc =    -5530.3145637865272874
      Enl =      770.8162123586905636
      Exc =    -1610.7897959002298194
 Exc_core =      654.1035481386278434
       KE =     1620.8019414740065258
        U =        4.5271541578301822
-------------------------------------
     Etot =    -6544.9254698076756540

IonicMinimize: Iter:   0  Etot: -6544.925469807675654  |grad|_K:  0.000e+00  t[s]:   7495.30
IonicMinimize: Converged (|grad|_K<1.000000e-04).

#--- Lowdin population analysis ---
# oxidation-state Fe1 +0.930 +0.930 +0.930 +0.930 +0.930 +0.930 +0.930 +0.930 +0.930 +0.930 +0.930 +0.930 +0.930 +0.930 +0.930 +0.930
# magnetic-moments Fe1 +4.345 +4.345 +4.345 +4.345 +4.345 +4.345 +4.345 +4.345 +4.345 +4.345 +4.345 +4.345 +4.345 +4.345 +4.345 +4.345
# oxidation-state Fe2 +0.930 +0.930 +0.930 +0.930 +0.930 +0.930 +0.930 +0.930 +0.930 +0.930 +0.930 +0.930 +0.930 +0.930 +0.930 +0.930
# magnetic-moments Fe2 -4.345 -4.345 -4.345 -4.345 -4.345 -4.345 -4.345 -4.345 -4.345 -4.345 -4.345 -4.345 -4.345 -4.345 -4.345 -4.345
# oxidation-state La +0.746 +0.746 +0.746 +0.746 +0.746 +0.746 +0.746 +0.746 +0.746 +0.746 +0.746 +0.746 +0.746 +0.746 +0.746 +0.746 +0.746 +0.746 +0.746 +0.746 +0.746 +0.746 +0.746 +0.746 +0.746 +0.746 +0.746 +0.746 +0.746 +0.746 +0.746 +0.746
# magnetic-moments La +0.000 +0.000 +0.000 +0.000 +0.000 +0.000 +0.000 +0.000 +0.000 +0.000 +0.000 +0.000 +0.000 +0.000 +0.000 +0.000 +0.000 +0.000 +0.000 +0.000 +0.000 +0.000 +0.000 +0.000 +0.000 +0.000 +0.000 +0.000 +0.000 +0.000 +0.000 +0.000
# oxidation-state O -0.534 -0.534 -0.534 -0.534 -0.534 -0.534 -0.534 -0.534 -0.534 -0.534 -0.534 -0.534 -0.534 -0.534 -0.534 -0.534 -0.534 -0.534 -0.534 -0.534 -0.534 -0.534 -0.534 -0.534 -0.534 -0.534 -0.534 -0.534 -0.534 -0.534 -0.534 -0.534 -0.534 -0.534 -0.534 -0.534 -0.534 -0.534 -0.534 -0.534 -0.534 -0.534 -0.534 -0.534 -0.534 -0.534 -0.534 -0.534 -0.534 -0.534 -0.534 -0.534 -0.534 -0.534 -0.534 -0.534 -0.534 -0.534 -0.534 -0.534 -0.534 -0.534 -0.534 -0.534 -0.527 -0.527 -0.527 -0.527 -0.527 -0.527 -0.527 -0.527 -0.527 -0.527 -0.527 -0.527 -0.527 -0.527 -0.527 -0.527 -0.527 -0.527 -0.527 -0.527 -0.527 -0.527 -0.527 -0.527 -0.527 -0.527 -0.527 -0.527 -0.527 -0.527 -0.527 -0.527
# magnetic-moments O -0.006 -0.006 -0.006 -0.006 -0.006 -0.006 -0.006 -0.006 -0.006 -0.006 -0.006 -0.006 -0.006 -0.006 -0.006 -0.006 +0.006 +0.006 +0.006 +0.006 +0.006 +0.006 +0.006 +0.006 +0.006 +0.006 +0.006 +0.006 +0.006 +0.006 +0.006 +0.006 -0.006 -0.006 -0.006 -0.006 -0.006 -0.006 -0.006 -0.006 -0.006 -0.006 -0.006 -0.006 -0.006 -0.006 -0.006 -0.006 +0.006 +0.006 +0.006 +0.006 +0.006 +0.006 +0.006 +0.006 +0.006 +0.006 +0.006 +0.006 +0.006 +0.006 +0.006 +0.006 -0.000 -0.000 -0.000 -0.000 -0.000 -0.000 -0.000 -0.000 -0.000 -0.000 -0.000 -0.000 -0.000 -0.000 -0.000 -0.000 -0.000 -0.000 -0.000 -0.000 -0.000 -0.000 -0.000 -0.000 -0.000 -0.000 -0.000 -0.000 -0.000 -0.000 -0.000 -0.000


Dumping 'charge.wfns' ... done
Dumping 'charge.d_tot' ... done
Dumping 'charge.eigStats' ... 
	eMin: -2.962504 at state 4 ( [ +0.000000 +0.000000 +0.000000 ] spin -1 )
	HOMO: +0.379058 at state 0 ( [ +0.000000 +0.000000 +0.000000 ] spin 1 )
	mu  : unavailable
	LUMO: unavailable
	eMax: +0.379058 at state 0 ( [ +0.000000 +0.000000 +0.000000 ] spin 1 )
	HOMO-LUMO gap: unavailable
	Optical gap  : unavailable
End date and time: Mon Dec 17 18:45:54 2018  (Duration: 0-2:05:57.79)
Done!

PROFILER:             augmentDensityGrid     7.569355 +/-     5.115110 s,  116 calls,    878.045160 s total
PROFILER:         augmentDensityGridGrad    18.802167 +/-    13.901667 s,  108 calls,   2030.634057 s total
PROFILER:        augmentDensitySpherical     0.082795 +/-     0.063172 s,  232 calls,     19.208543 s total
PROFILER:    augmentDensitySphericalGrad     0.091377 +/-     0.062006 s,  456 calls,     41.668030 s total
PROFILER:                 augmentOverlap     2.065908 +/-     1.275657 s,  504 calls,   1041.217811 s total
PROFILER:                     changeGrid     0.006391 +/-     0.001782 s,  282 calls,      1.802176 s total
PROFILER:        ColumnBundle::randomize     0.007060 +/-     0.000353 s,    2 calls,      0.014121 s total
PROFILER:                     diagouterI     3.714387 +/-     1.261105 s,   58 calls,    215.434441 s total
PROFILER:              EdensityAndVscloc     0.903294 +/-     0.040789 s,   49 calls,     44.261391 s total
PROFILER:                     EnlAndGrad     0.194756 +/-     0.150735 s,  592 calls,    115.295575 s total
PROFILER:            ExCorrCommunication     0.053773 +/-     0.034549 s,  307 calls,     16.508348 s total
PROFILER:               ExCorrFunctional     0.113497 +/-     0.022377 s,   53 calls,      6.015318 s total
PROFILER:                    ExCorrTotal     0.536392 +/-     0.105141 s,   53 calls,     28.428750 s total
PROFILER:                   Idag_DiagV_I     5.799476 +/-     1.476893 s,  112 calls,    649.541362 s total
PROFILER:                    inv(matrix)     0.000034 +/-     0.000018 s,   21 calls,      0.000716 s total
PROFILER:            matrix::diagonalize     0.031759 +/-     0.219561 s, 8934 calls,    283.730459 s total
PROFILER:     RadialFunctionR::transform     0.005492 +/-     0.003316 s,  243 calls,      1.334493 s total
PROFILER:                    reduceKmesh     0.003507 +/-     0.000000 s,    1 calls,      0.003507 s total
PROFILER:                   rhoAtom_calc     1.162609 +/-     0.945559 s,  116 calls,    134.862636 s total
PROFILER:                   rhoAtom_grad     0.556753 +/-     0.510632 s,  440 calls,    244.971160 s total
PROFILER:               WavefunctionDrag    54.672547 +/-     0.000000 s,    1 calls,     54.672547 s total
PROFILER:                            Y*M     0.890319 +/-     0.642934 s, 1668 calls,   1485.052558 s total
PROFILER:                          Y1^Y2     0.795997 +/-     0.604224 s, 1406 calls,   1119.171600 s total

MEMUSAGE:                   ColumnBundle     9.949106 GB
MEMUSAGE:             complexScalarField     0.055618 GB
MEMUSAGE:        complexScalarFieldTilde     0.121665 GB
MEMUSAGE:                    IndexArrays     0.065378 GB
MEMUSAGE:                         matrix     0.784525 GB
MEMUSAGE:                           misc     0.289349 GB
MEMUSAGE:                     RealKernel     0.014078 GB
MEMUSAGE:                    ScalarField     0.862083 GB
MEMUSAGE:               ScalarFieldTilde     0.140784 GB
MEMUSAGE:                          Total    10.886476 GB
