
     Program PWSCF v.6.1 (svn rev. 13369) starts on 10Feb2021 at 22:55:12 

     This program is part of the open-source Quantum ESPRESSO suite
     for quantum simulation of materials; please cite
         "P. Giannozzi et al., J. Phys.:Condens. Matter 21 395502 (2009);
          URL http://www.quantum-espresso.org", 
     in publications or presentations arising from this work. More details at
     http://www.quantum-espresso.org/quote

     Parallel version (MPI), running on   160 processors
     K-points division:     npool     =       2
     R & G space division:  proc/nbgrp/npool/nimage =      80
     Reading input from scf.in
Warning: card &CELL ignored
Warning: card / ignored
Warning: card &IONS ignored
Warning: card / ignored

     Current dimensions of program PWSCF are:
     Max number of different atomic species (ntypx) = 10
     Max number of k-points (npk) = 120000
     Max angular momentum in pseudopotentials (lmaxx) =  3

     Subspace diagonalization in iterative solution of the eigenvalue problem:
     a serial algorithm will be used

 
     Parallelization info
     --------------------
     sticks:   dense  smooth     PW     G-vecs:    dense   smooth      PW
     Min         153     153     38                14461    14461    1806
     Max         154     154     39                14464    14464    1813
     Sum       12259   12259   3067              1156971  1156971  144701
 


     bravais-lattice index     =            0
     lattice parameter (alat)  =      28.4287  a.u.
     unit-cell volume          =   20997.3881 (a.u.)^3
     number of atoms/cell      =           72
     number of atomic types    =            3
     number of electrons       =       288.00 (up: 144.00, down: 144.00)
     number of Kohn-Sham states=          168
     kinetic-energy cutoff     =      55.0000  Ry
     charge density cutoff     =     220.0000  Ry
     convergence threshold     =      1.0E-08
     mixing beta               =       0.7000
     number of iterations used =            8  plain     mixing
     Exchange-correlation      = PBE ( 1  4  3  4 0 0)

     celldm(1)=  28.428666  celldm(2)=   0.000000  celldm(3)=   0.000000
     celldm(4)=   0.000000  celldm(5)=   0.000000  celldm(6)=   0.000000

     crystal axes: (cart. coord. in units of alat)
               a(1) = (   1.000000   0.000000   0.000000 )  
               a(2) = (  -0.499999   0.866026   0.000000 )  
               a(3) = (   0.000000   0.000000   1.055273 )  

     reciprocal axes: (cart. coord. in units 2 pi/alat)
               b(1) = (  1.000000  0.577349  0.000000 )  
               b(2) = (  0.000000  1.154700  0.000000 )  
               b(3) = (  0.000000  0.000000  0.947622 )  


     PseudoPot. # 1 for B  read from file:
     ~/pseudo-ONCV-proj/B_ONCV_PBE-1.0.upf
     MD5 check sum: Not computed, couldn't open file
     Pseudo is Norm-conserving, Zval =  3.0
     Generated using ONCVPSP code by D. R. Hamann
     Using radial grid of 1534 points,  4 beta functions with: 
                l(1) =   0
                l(2) =   0
                l(3) =   1
                l(4) =   1

     PseudoPot. # 2 for N  read from file:
     ~/pseudo-ONCV-proj/N_ONCV_PBE-1.0.upf
     MD5 check sum: Not computed, couldn't open file
     Pseudo is Norm-conserving, Zval =  5.0
     Generated using ONCVPSP code by D. R. Hamann
     Using radial grid of 1058 points,  4 beta functions with: 
                l(1) =   0
                l(2) =   0
                l(3) =   1
                l(4) =   1

     PseudoPot. # 3 for C  read from file:
     ~/pseudo-ONCV-proj/C_ONCV_PBE-1.0.upf
     MD5 check sum: Not computed, couldn't open file
     Pseudo is Norm-conserving, Zval =  4.0
     Generated using ONCVPSP code by D. R. Hamann
     Using radial grid of 1248 points,  4 beta functions with: 
                l(1) =   0
                l(2) =   0
                l(3) =   1
                l(4) =   1

     atomic species   valence    mass     pseudopotential
        B              3.00    10.81100     B ( 1.00)
        N              5.00    14.00674     N ( 1.00)
        C              4.00    12.01070     C ( 1.00)

     Starting magnetic structure 
     atomic species   magnetization
        B            1.000
        N            0.000
        C            0.000

      2 Sym. Ops. (no inversion) found


                                    s                        frac. trans.

      isym =  1     identity                                     

 cryst.   s( 1) = (     1          0          0      )
                  (     0          1          0      )
                  (     0          0          1      )

 cart.    s( 1) = (  1.0000000 -0.0000000  0.0000000 )
                  (  0.0000000  1.0000000  0.0000000 )
                  (  0.0000000  0.0000000  1.0000000 )


      isym =  2     inv. 180 deg rotation - cart. axis [0,0,1]   

 cryst.   s( 2) = (     1          0          0      )
                  (     0          1          0      )
                  (     0          0         -1      )

 cart.    s( 2) = (  1.0000000 -0.0000000  0.0000000 )
                  (  0.0000000  1.0000000  0.0000000 )
                  (  0.0000000  0.0000000 -1.0000000 )


   Cartesian axes

     site n.     atom                  positions (alat units)
         1           B   tau(   1) = (  -0.0001023   0.0960135   0.5276366  )
         2           B   tau(   2) = (  -0.0833664   0.2404654   0.5276366  )
         3           B   tau(   3) = (  -0.1667671   0.3849200   0.5276366  )
         4           B   tau(   4) = (  -0.2502337   0.5292550   0.5276366  )
         5           B   tau(   5) = (  -0.3332969   0.6736000   0.5276366  )
         6           B   tau(   6) = (  -0.4166268   0.8179319   0.5276366  )
         7           B   tau(   7) = (   0.1666649   0.0959825   0.5276366  )
         8           B   tau(   8) = (   0.0831431   0.2401489   0.5276366  )
         9           B   tau(   9) = (   0.0001728   0.3849997   0.5276366  )
        10           B   tau(  10) = (  -0.0837862   0.5292798   0.5276366  )
        11           B   tau(  11) = (  -0.1668768   0.6736951   0.5276366  )
        12           B   tau(  12) = (  -0.2500079   0.8179081   0.5276366  )
        13           B   tau(  13) = (   0.3334496   0.0959747   0.5276366  )
        14           B   tau(  14) = (   0.2504355   0.2395705   0.5276366  )
        15           B   tau(  15) = (   0.1673963   0.3830052   0.5276366  )
        16           B   tau(  16) = (   0.0820574   0.5308170   0.5276366  )
        17           B   tau(  17) = (  -0.0006408   0.6744486   0.5276366  )
        18           B   tau(  18) = (  -0.0834910   0.8181390   0.5276366  )
        19           B   tau(  19) = (   0.5000173   0.0962348   0.5276366  )
        20           B   tau(  20) = (   0.4164356   0.2407616   0.5276366  )
        21           B   tau(  21) = (   0.3323094   0.3851697   0.5276366  )
        22           B   tau(  22) = (   0.1663886   0.6725537   0.5276366  )
        23           B   tau(  23) = (   0.0833909   0.8176134   0.5276366  )
        24           B   tau(  24) = (   0.6666468   0.0961409   0.5276366  )
        25           B   tau(  25) = (   0.5832509   0.2405873   0.5276366  )
        26           B   tau(  26) = (   0.4999132   0.3850506   0.5276366  )
        27           B   tau(  27) = (   0.4170326   0.5298745   0.5276366  )
        28           B   tau(  28) = (   0.3340680   0.6735737   0.5276366  )
        29           B   tau(  29) = (   0.2500875   0.8177625   0.5276366  )
        30           B   tau(  30) = (   0.8332718   0.0961463   0.5276366  )
        31           B   tau(  31) = (   0.7499560   0.2405370   0.5276366  )
        32           B   tau(  32) = (   0.6665682   0.3848862   0.5276366  )
        33           B   tau(  33) = (   0.5831987   0.5292647   0.5276366  )
        34           B   tau(  34) = (   0.5005030   0.6738655   0.5276366  )
        35           B   tau(  35) = (   0.4166232   0.8177827   0.5276366  )
        36           N   tau(  36) = (   0.0832242   0.0479532   0.5276366  )
        37           N   tau(  37) = (  -0.0002618   0.1920337   0.5276366  )
        38           N   tau(  38) = (  -0.0833298   0.3367895   0.5276366  )
        39           N   tau(  39) = (  -0.1671576   0.4811065   0.5276366  )
        40           N   tau(  40) = (  -0.2501917   0.6254480   0.5276366  )
        41           N   tau(  41) = (  -0.3334054   0.7697586   0.5276366  )
        42           N   tau(  42) = (   0.2500375   0.0479631   0.5276366  )
        43           N   tau(  43) = (   0.1666696   0.1919140   0.5276366  )
        44           N   tau(  44) = (   0.0832522   0.3359854   0.5276366  )
        45           N   tau(  45) = (  -0.0007349   0.4814559   0.5276366  )
        46           N   tau(  46) = (  -0.0837954   0.6257333   0.5276366  )
        47           N   tau(  47) = (  -0.1667763   0.7699077   0.5276366  )
        48           N   tau(  48) = (   0.4168003   0.0481894   0.5276366  )
        49           N   tau(  49) = (   0.3337945   0.1918661   0.5276366  )
        50           N   tau(  50) = (   0.2507065   0.3349081   0.5276366  )
        51           N   tau(  51) = (   0.0820594   0.6270143   0.5276366  )
        52           N   tau(  52) = (  -0.0002743   0.7704918   0.5276366  )
        53           N   tau(  53) = (   0.5834870   0.0479140   0.5276366  )
        54           N   tau(  54) = (   0.4999053   0.1926822   0.5276366  )
        55           N   tau(  55) = (   0.4160735   0.3377130   0.5276366  )
        56           N   tau(  56) = (   0.3323746   0.4834453   0.5276366  )
        57           N   tau(  57) = (   0.2515302   0.6234723   0.5276366  )
        58           N   tau(  58) = (   0.1671721   0.7688240   0.5276366  )
        59           N   tau(  59) = (   0.7499276   0.0478645   0.5276366  )
        60           N   tau(  60) = (   0.6665723   0.1923954   0.5276366  )
        61           N   tau(  61) = (   0.5830828   0.3368489   0.5276366  )
        62           N   tau(  62) = (   0.4996655   0.4811915   0.5276366  )
        63           N   tau(  63) = (   0.4172975   0.6258268   0.5276366  )
        64           N   tau(  64) = (   0.3332239   0.7694774   0.5276366  )
        65           N   tau(  65) = (   0.9164657   0.0478614   0.5276366  )
        66           N   tau(  66) = (   0.8331949   0.1923553   0.5276366  )
        67           N   tau(  67) = (   0.7498490   0.3367149   0.5276366  )
        68           N   tau(  68) = (   0.6663494   0.4810767   0.5276366  )
        69           N   tau(  69) = (   0.5834096   0.6254644   0.5276366  )
        70           N   tau(  70) = (   0.5000398   0.7698654   0.5276366  )
        71           C   tau(  71) = (   0.2523320   0.5305840   0.5276366  )
        72           C   tau(  72) = (   0.1696692   0.4828585   0.5276366  )

   Crystallographic axes

     site n.     atom                  positions (cryst. coord.)
         1           B   tau(   1) = (  0.0553310  0.1108667  0.5000000  )
         2           B   tau(   2) = (  0.0554660  0.2776653  0.5000000  )
         3           B   tau(   3) = (  0.0554660  0.4444670  0.5000000  )
         4           B   tau(   4) = (  0.0553310  0.6111306  0.5000000  )
         5           B   tau(   5) = (  0.0556051  0.7778057  0.5000000  )
         6           B   tau(   6) = (  0.0556051  0.9444658  0.5000000  )
         7           B   tau(   7) = (  0.2220802  0.1108310  0.5000000  )
         8           B   tau(   8) = (  0.2217927  0.2772999  0.5000000  )
         9           B   tau(   9) = (  0.2224519  0.4445591  0.5000000  )
        10           B   tau(  10) = (  0.2217928  0.6111592  0.5000000  )
        11           B   tau(  11) = (  0.2220802  0.7779156  0.5000000  )
        12           B   tau(  12) = (  0.2222103  0.9444383  0.5000000  )
        13           B   tau(  13) = (  0.3888605  0.1108220  0.5000000  )
        14           B   tau(  14) = (  0.3887512  0.2766320  0.5000000  )
        15           B   tau(  15) = (  0.3885239  0.4422560  0.5000000  )
        16           B   tau(  16) = (  0.3885239  0.6129342  0.5000000  )
        17           B   tau(  17) = (  0.3887512  0.7787856  0.5000000  )
        18           B   tau(  18) = (  0.3888605  0.9447048  0.5000000  )
        19           B   tau(  19) = (  0.5555784  0.1111224  0.5000000  )
        20           B   tau(  20) = (  0.5554390  0.2780074  0.5000000  )
        21           B   tau(  21) = (  0.5546866  0.4447553  0.5000000  )
        22           B   tau(  22) = (  0.5546866  0.7765976  0.5000000  )
        23           B   tau(  23) = (  0.5554390  0.9440979  0.5000000  )
        24           B   tau(  24) = (  0.7221537  0.1110139  0.5000000  )
        25           B   tau(  25) = (  0.7221537  0.2778061  0.5000000  )
        26           B   tau(  26) = (  0.7222217  0.4446178  0.5000000  )
        27           B   tau(  27) = (  0.7229550  0.6118459  0.5000000  )
        28           B   tau(  28) = (  0.7229549  0.7777754  0.5000000  )
        29           B   tau(  29) = (  0.7222217  0.9442702  0.5000000  )
        30           B   tau(  30) = (  0.8887818  0.1110201  0.5000000  )
        31           B   tau(  31) = (  0.8888297  0.2777480  0.5000000  )
        32           B   tau(  32) = (  0.8887818  0.4444280  0.5000000  )
        33           B   tau(  33) = (  0.8887690  0.6111418  0.5000000  )
        34           B   tau(  34) = (  0.8895584  0.7781123  0.5000000  )
        35           B   tau(  35) = (  0.8887690  0.9442935  0.5000000  )
        36           N   tau(  36) = (  0.1109099  0.0553716  0.5000000  )
        37           N   tau(  37) = (  0.1106086  0.2217413  0.5000000  )
        38           N   tau(  38) = (  0.1111152  0.3888908  0.5000000  )
        39           N   tau(  39) = (  0.1106086  0.5555336  0.5000000  )
        40           N   tau(  40) = (  0.1109099  0.7222047  0.5000000  )
        41           N   tau(  41) = (  0.1110137  0.8888400  0.5000000  )
        42           N   tau(  42) = (  0.2777289  0.0553830  0.5000000  )
        43           N   tau(  43) = (  0.2774709  0.2216031  0.5000000  )
        44           N   tau(  44) = (  0.2772330  0.3879623  0.5000000  )
        45           N   tau(  45) = (  0.2772330  0.5559370  0.5000000  )
        46           N   tau(  46) = (  0.2774709  0.7225341  0.5000000  )
        47           N   tau(  47) = (  0.2777289  0.8890122  0.5000000  )
        48           N   tau(  48) = (  0.4446224  0.0556443  0.5000000  )
        49           N   tau(  49) = (  0.4445681  0.2215477  0.5000000  )
        50           N   tau(  50) = (  0.4440653  0.3867183  0.5000000  )
        51           N   tau(  51) = (  0.4440653  0.7240133  0.5000000  )
        52           N   tau(  52) = (  0.4445682  0.8896867  0.5000000  )
        53           N   tau(  53) = (  0.6111501  0.0553263  0.5000000  )
        54           N   tau(  54) = (  0.6111501  0.2224901  0.5000000  )
        55           N   tau(  55) = (  0.6110517  0.3899571  0.5000000  )
        56           N   tau(  56) = (  0.6114912  0.5582342  0.5000000  )
        57           N   tau(  57) = (  0.6114912  0.7199233  0.5000000  )
        58           N   tau(  58) = (  0.6110517  0.8877609  0.5000000  )
        59           N   tau(  59) = (  0.7775621  0.0552691  0.5000000  )
        60           N   tau(  60) = (  0.7776516  0.2221589  0.5000000  )
        61           N   tau(  61) = (  0.7775621  0.3889593  0.5000000  )
        62           N   tau(  62) = (  0.7774808  0.5556317  0.5000000  )
        63           N   tau(  63) = (  0.7786179  0.7226421  0.5000000  )
        64           N   tau(  64) = (  0.7774807  0.8885154  0.5000000  )
        65           N   tau(  65) = (  0.9440984  0.0552656  0.5000000  )
        66           N   tau(  66) = (  0.9442510  0.2221126  0.5000000  )
        67           N   tau(  67) = (  0.9442510  0.3888046  0.5000000  )
        68           N   tau(  68) = (  0.9440984  0.5554991  0.5000000  )
        69           N   tau(  69) = (  0.9445207  0.7222235  0.5000000  )
        70           N   tau(  70) = (  0.9445207  0.8889634  0.5000000  )
        71           C   tau(  71) = (  0.5586640  0.6126652  0.5000000  )
        72           C   tau(  72) = (  0.4484469  0.5575566  0.5000000  )

     number of k points=     1
                       cart. coord. in units 2pi/alat
        k(    1) = (   0.0000000   0.0000000   0.0000000), wk =   1.0000000

                       cryst. coord.
        k(    1) = (   0.0000000   0.0000000   0.0000000), wk =   1.0000000

     Dense  grid:  1156971 G-vectors     FFT dimensions: ( 135, 135, 144)

     Estimated max dynamical RAM per process >      68.84MB

     Estimated total allocated dynamical RAM >   11014.86MB
     Generating pointlists ...
     new r_m :   0.0393 (alat units)  1.1180 (a.u.) for type    1
     new r_m :   0.0383 (alat units)  1.0893 (a.u.) for type    2
     new r_m :   0.0383 (alat units)  1.0893 (a.u.) for type    3

     Initial potential from superposition of free atoms
     Check: negative starting charge=(component1):   -0.001386
     Check: negative starting charge=(component2):   -0.001913

     starting charge  287.99093, renormalised to  288.00000

     negative rho (up, down):  1.386E-03 1.913E-03
     Starting wfc are  288 randomized atomic wfcs

     total cpu time spent up to now is        2.9 secs

     per-process dynamical memory:    91.4 Mb

     Self-consistent Calculation

     iteration #  1     ecut=    55.00 Ry     beta=0.70
     Davidson diagonalization with overlap
     ethr =  1.00E-02,  avg # of iterations =  2.5

     negative rho (up, down):  1.552E-04 3.038E-04

     total cpu time spent up to now is        4.4 secs

     total energy              =    -916.56168442 Ry
     Harris-Foulkes estimate   =    -922.74323910 Ry
     estimated scf accuracy    <      17.34988191 Ry

     total magnetization       =     0.00 Bohr mag/cell
     absolute magnetization    =    18.29 Bohr mag/cell

     iteration #  2     ecut=    55.00 Ry     beta=0.70
     Davidson diagonalization with overlap
     ethr =  6.02E-03,  avg # of iterations =  3.0

     negative rho (up, down):  6.756E-05 1.197E-04

     total cpu time spent up to now is        5.7 secs

     total energy              =    -921.48595529 Ry
     Harris-Foulkes estimate   =    -925.97285715 Ry
     estimated scf accuracy    <      10.40248904 Ry

     total magnetization       =    -0.00 Bohr mag/cell
     absolute magnetization    =    13.63 Bohr mag/cell

     iteration #  3     ecut=    55.00 Ry     beta=0.70
     Davidson diagonalization with overlap
     ethr =  3.61E-03,  avg # of iterations =  3.0

     negative rho (up, down):  5.259E-06 1.126E-05

     total cpu time spent up to now is        7.0 secs

     total energy              =    -923.58241519 Ry
     Harris-Foulkes estimate   =    -923.53325165 Ry
     estimated scf accuracy    <       0.41829609 Ry

     total magnetization       =    -0.00 Bohr mag/cell
     absolute magnetization    =     8.64 Bohr mag/cell

     iteration #  4     ecut=    55.00 Ry     beta=0.70
     Davidson diagonalization with overlap
     c_bands:  1 eigenvalues not converged
     ethr =  1.45E-04,  avg # of iterations = 18.5

     total cpu time spent up to now is       11.1 secs

     total energy              =    -923.77528772 Ry
     Harris-Foulkes estimate   =    -923.96626118 Ry
     estimated scf accuracy    <       0.67002244 Ry

     total magnetization       =     0.00 Bohr mag/cell
     absolute magnetization    =     5.23 Bohr mag/cell

     iteration #  5     ecut=    55.00 Ry     beta=0.70
     Davidson diagonalization with overlap
     ethr =  1.45E-04,  avg # of iterations =  6.5

     negative rho (up, down):  7.317E-09 1.273E-08

     total cpu time spent up to now is       12.8 secs

     total energy              =    -923.90292417 Ry
     Harris-Foulkes estimate   =    -923.90415343 Ry
     estimated scf accuracy    <       0.03432864 Ry

     total magnetization       =     0.00 Bohr mag/cell
     absolute magnetization    =     3.54 Bohr mag/cell

     iteration #  6     ecut=    55.00 Ry     beta=0.70
     Davidson diagonalization with overlap
     ethr =  1.19E-05,  avg # of iterations =  8.5

     total cpu time spent up to now is       14.9 secs

     total energy              =    -923.92320687 Ry
     Harris-Foulkes estimate   =    -923.91147746 Ry
     estimated scf accuracy    <       0.00644966 Ry

     total magnetization       =    -0.00 Bohr mag/cell
     absolute magnetization    =     2.68 Bohr mag/cell

     iteration #  7     ecut=    55.00 Ry     beta=0.70
     Davidson diagonalization with overlap
     ethr =  2.24E-06,  avg # of iterations =  4.0

     total cpu time spent up to now is       17.1 secs

     total energy              =    -923.93130650 Ry
     Harris-Foulkes estimate   =    -923.93117946 Ry
     estimated scf accuracy    <       0.00521662 Ry

     total magnetization       =     0.00 Bohr mag/cell
     absolute magnetization    =     1.03 Bohr mag/cell

     iteration #  8     ecut=    55.00 Ry     beta=0.70
     Davidson diagonalization with overlap
     ethr =  1.81E-06,  avg # of iterations =  2.5

     total cpu time spent up to now is       18.4 secs

     total energy              =    -923.93226824 Ry
     Harris-Foulkes estimate   =    -923.93215354 Ry
     estimated scf accuracy    <       0.00103531 Ry

     total magnetization       =    -0.00 Bohr mag/cell
     absolute magnetization    =     0.58 Bohr mag/cell

     iteration #  9     ecut=    55.00 Ry     beta=0.70
     Davidson diagonalization with overlap
     ethr =  3.59E-07,  avg # of iterations =  3.0

     total cpu time spent up to now is       20.0 secs

     total energy              =    -923.93277941 Ry
     Harris-Foulkes estimate   =    -923.93276502 Ry
     estimated scf accuracy    <       0.00009141 Ry

     total magnetization       =     0.00 Bohr mag/cell
     absolute magnetization    =     0.20 Bohr mag/cell

     iteration # 10     ecut=    55.00 Ry     beta=0.70
     Davidson diagonalization with overlap
     ethr =  3.17E-08,  avg # of iterations =  3.0

     total cpu time spent up to now is       21.5 secs

     total energy              =    -923.93286614 Ry
     Harris-Foulkes estimate   =    -923.93287382 Ry
     estimated scf accuracy    <       0.00002136 Ry

     total magnetization       =    -0.00 Bohr mag/cell
     absolute magnetization    =     0.02 Bohr mag/cell

     iteration # 11     ecut=    55.00 Ry     beta=0.70
     Davidson diagonalization with overlap
     ethr =  7.41E-09,  avg # of iterations =  3.0

     total cpu time spent up to now is       22.7 secs

     total energy              =    -923.93287150 Ry
     Harris-Foulkes estimate   =    -923.93287123 Ry
     estimated scf accuracy    <       0.00000092 Ry

     total magnetization       =     0.00 Bohr mag/cell
     absolute magnetization    =     0.01 Bohr mag/cell

     iteration # 12     ecut=    55.00 Ry     beta=0.70
     Davidson diagonalization with overlap
     ethr =  3.20E-10,  avg # of iterations =  3.5

     total cpu time spent up to now is       24.2 secs

     total energy              =    -923.93287204 Ry
     Harris-Foulkes estimate   =    -923.93287193 Ry
     estimated scf accuracy    <       0.00000021 Ry

     total magnetization       =     0.00 Bohr mag/cell
     absolute magnetization    =     0.00 Bohr mag/cell

     iteration # 13     ecut=    55.00 Ry     beta=0.70
     Davidson diagonalization with overlap
     ethr =  7.25E-11,  avg # of iterations =  3.5

     total cpu time spent up to now is       25.6 secs

     total energy              =    -923.93287219 Ry
     Harris-Foulkes estimate   =    -923.93287212 Ry
     estimated scf accuracy    <       0.00000004 Ry

     total magnetization       =     0.00 Bohr mag/cell
     absolute magnetization    =     0.00 Bohr mag/cell

     iteration # 14     ecut=    55.00 Ry     beta=0.70
     Davidson diagonalization with overlap
     ethr =  1.36E-11,  avg # of iterations =  4.0

     total cpu time spent up to now is       27.1 secs

     total energy              =    -923.93287223 Ry
     Harris-Foulkes estimate   =    -923.93287222 Ry
     estimated scf accuracy    <       0.00000002 Ry

     total magnetization       =    -0.00 Bohr mag/cell
     absolute magnetization    =     0.00 Bohr mag/cell

     iteration # 15     ecut=    55.00 Ry     beta=0.70
     Davidson diagonalization with overlap
     ethr =  5.34E-12,  avg # of iterations =  4.0
 
     Magnetic moment per site:
     atom:    1    charge:    0.8600    magn:   -0.0000    constr:    0.0000
     atom:    2    charge:    0.8581    magn:   -0.0000    constr:    0.0000
     atom:    3    charge:    0.8581    magn:   -0.0000    constr:    0.0000
     atom:    4    charge:    0.8600    magn:   -0.0000    constr:    0.0000
     atom:    5    charge:    0.8611    magn:   -0.0000    constr:    0.0000
     atom:    6    charge:    0.8611    magn:   -0.0000    constr:    0.0000
     atom:    7    charge:    0.8630    magn:   -0.0000    constr:    0.0000
     atom:    8    charge:    0.8606    magn:   -0.0000    constr:    0.0000
     atom:    9    charge:    0.8558    magn:   -0.0000    constr:    0.0000
     atom:   10    charge:    0.8606    magn:   -0.0000    constr:    0.0000
     atom:   11    charge:    0.8630    magn:   -0.0000    constr:    0.0000
     atom:   12    charge:    0.8607    magn:   -0.0000    constr:    0.0000
     atom:   13    charge:    0.8624    magn:   -0.0000    constr:    0.0000
     atom:   14    charge:    0.8664    magn:   -0.0000    constr:    0.0000
     atom:   15    charge:    0.8672    magn:   -0.0000    constr:    0.0000
     atom:   16    charge:    0.8672    magn:   -0.0000    constr:    0.0000
     atom:   17    charge:    0.8664    magn:   -0.0000    constr:    0.0000
     atom:   18    charge:    0.8624    magn:   -0.0000    constr:    0.0000
     atom:   19    charge:    0.8587    magn:   -0.0000    constr:    0.0000
     atom:   20    charge:    0.8548    magn:   -0.0000    constr:    0.0000
     atom:   21    charge:    0.8503    magn:    0.0000    constr:    0.0000
     atom:   22    charge:    0.8503    magn:    0.0000    constr:    0.0000
     atom:   23    charge:    0.8548    magn:   -0.0000    constr:    0.0000
     atom:   24    charge:    0.8592    magn:   -0.0000    constr:    0.0000
     atom:   25    charge:    0.8592    magn:   -0.0000    constr:    0.0000
     atom:   26    charge:    0.8600    magn:   -0.0000    constr:    0.0000
     atom:   27    charge:    0.8632    magn:   -0.0000    constr:    0.0000
     atom:   28    charge:    0.8632    magn:   -0.0000    constr:    0.0000
     atom:   29    charge:    0.8600    magn:   -0.0000    constr:    0.0000
     atom:   30    charge:    0.8607    magn:   -0.0000    constr:    0.0000
     atom:   31    charge:    0.8593    magn:   -0.0000    constr:    0.0000
     atom:   32    charge:    0.8607    magn:   -0.0000    constr:    0.0000
     atom:   33    charge:    0.8589    magn:   -0.0000    constr:    0.0000
     atom:   34    charge:    0.8651    magn:   -0.0000    constr:    0.0000
     atom:   35    charge:    0.8589    magn:   -0.0000    constr:    0.0000
     atom:   36    charge:    2.6870    magn:    0.0000    constr:    0.0000
     atom:   37    charge:    2.6821    magn:    0.0000    constr:    0.0000
     atom:   38    charge:    2.6837    magn:    0.0000    constr:    0.0000
     atom:   39    charge:    2.6821    magn:    0.0000    constr:    0.0000
     atom:   40    charge:    2.6870    magn:    0.0000    constr:    0.0000
     atom:   41    charge:    2.6814    magn:    0.0000    constr:    0.0000
     atom:   42    charge:    2.6870    magn:    0.0000    constr:    0.0000
     atom:   43    charge:    2.6864    magn:    0.0000    constr:    0.0000
     atom:   44    charge:    2.6829    magn:    0.0000    constr:    0.0000
     atom:   45    charge:    2.6829    magn:    0.0000    constr:    0.0000
     atom:   46    charge:    2.6864    magn:    0.0000    constr:    0.0000
     atom:   47    charge:    2.6870    magn:    0.0000    constr:    0.0000
     atom:   48    charge:    2.6889    magn:    0.0000    constr:    0.0000
     atom:   49    charge:    2.6856    magn:    0.0000    constr:    0.0000
     atom:   50    charge:    2.6879    magn:    0.0000    constr:    0.0000
     atom:   51    charge:    2.6879    magn:    0.0000    constr:    0.0000
     atom:   52    charge:    2.6856    magn:    0.0000    constr:    0.0000
     atom:   53    charge:    2.6846    magn:    0.0000    constr:    0.0000
     atom:   54    charge:    2.6846    magn:    0.0000    constr:    0.0000
     atom:   55    charge:    2.6812    magn:    0.0000    constr:    0.0000
     atom:   56    charge:    2.6693    magn:   -0.0000    constr:    0.0000
     atom:   57    charge:    2.6693    magn:   -0.0000    constr:    0.0000
     atom:   58    charge:    2.6812    magn:    0.0000    constr:    0.0000
     atom:   59    charge:    2.6856    magn:    0.0000    constr:    0.0000
     atom:   60    charge:    2.6802    magn:    0.0000    constr:    0.0000
     atom:   61    charge:    2.6856    magn:    0.0000    constr:    0.0000
     atom:   62    charge:    2.6818    magn:    0.0000    constr:    0.0000
     atom:   63    charge:    2.6912    magn:    0.0000    constr:    0.0000
     atom:   64    charge:    2.6818    magn:    0.0000    constr:    0.0000
     atom:   65    charge:    2.6861    magn:    0.0000    constr:    0.0000
     atom:   66    charge:    2.6858    magn:    0.0000    constr:    0.0000
     atom:   67    charge:    2.6858    magn:    0.0000    constr:    0.0000
     atom:   68    charge:    2.6861    magn:    0.0000    constr:    0.0000
     atom:   69    charge:    2.6878    magn:    0.0000    constr:    0.0000
     atom:   70    charge:    2.6878    magn:    0.0000    constr:    0.0000
     atom:   71    charge:    1.5651    magn:    0.0001    constr:    0.0000
     atom:   72    charge:    1.6390    magn:   -0.0000    constr:    0.0000

     total cpu time spent up to now is       28.6 secs

     End of self-consistent calculation

 ------ SPIN UP ------------


          k = 0.0000 0.0000 0.0000 (144701 PWs)   bands (ev):

   -22.0627 -21.1796 -20.8720 -20.8056 -20.7521 -20.7259 -20.6114 -20.1344
   -20.0189 -19.8098 -19.8065 -19.7556 -19.6624 -19.4931 -19.4924 -19.3606
   -19.3390 -19.3232 -19.0782 -18.7988 -18.5072 -18.4384 -18.3797 -18.3416
   -18.3403 -18.3099 -18.2987 -18.2684 -18.2663 -18.2597 -18.2241 -18.1406
   -18.1180 -17.7335 -17.6520 -15.3480 -13.2489 -12.5504 -12.5389 -12.2412
   -12.0883 -11.8027 -11.7956 -11.7553 -11.7462 -11.7022 -11.6917 -11.6855
   -11.6560 -11.5789 -11.5762 -11.5543 -11.5020 -11.0135 -10.7945 -10.6927
   -10.6196 -10.5685 -10.4931 -10.4238 -10.3937  -9.7022  -9.4496  -9.2464
    -9.2254  -9.1753  -9.1618  -9.1407  -9.1187  -9.0435  -9.0348  -9.0099
    -9.0025  -8.9999  -8.9856  -8.9616  -8.9258  -8.8904  -8.7840  -8.5965
    -8.5188  -8.2350  -8.2016  -8.1546  -8.1225  -8.0754  -7.9981  -7.8547
    -7.8510  -7.7359  -7.6897  -7.6377  -7.6359  -7.5172  -7.5036  -7.3921
    -7.3181  -7.3083  -7.2532  -7.2164  -7.1347  -7.1217  -7.0114  -7.0088
    -6.9849  -6.9391  -6.9113  -6.8441  -6.8382  -6.8133  -6.7935  -6.6935
    -6.4650  -6.3785  -6.2845  -6.2326  -6.2138  -6.1877  -6.0432  -5.9823
    -5.9480  -5.9001  -5.8830  -5.7932  -5.3763  -5.0092  -4.9770  -4.9680
    -4.8027  -4.7759  -4.7387  -4.7261  -4.7077  -4.6905  -4.6560  -4.6535
    -4.6438  -4.5787  -4.5591  -4.5230  -4.4638  -3.9346  -3.6628  -3.0458
     0.3096   1.0369   1.0679   1.1214   1.1722   1.1938   1.4647   1.7154
     1.7797   1.7836   1.8214   1.8348   1.8773   1.8877   1.9030   1.9128
     1.9147   1.9167   1.9381   1.9693   1.9852   1.9880   2.0400   2.0802

     occupation numbers 
     1.0000   1.0000   1.0000   1.0000   1.0000   1.0000   1.0000   1.0000
     1.0000   1.0000   1.0000   1.0000   1.0000   1.0000   1.0000   1.0000
     1.0000   1.0000   1.0000   1.0000   1.0000   1.0000   1.0000   1.0000
     1.0000   1.0000   1.0000   1.0000   1.0000   1.0000   1.0000   1.0000
     1.0000   1.0000   1.0000   1.0000   1.0000   1.0000   1.0000   1.0000
     1.0000   1.0000   1.0000   1.0000   1.0000   1.0000   1.0000   1.0000
     1.0000   1.0000   1.0000   1.0000   1.0000   1.0000   1.0000   1.0000
     1.0000   1.0000   1.0000   1.0000   1.0000   1.0000   1.0000   1.0000
     1.0000   1.0000   1.0000   1.0000   1.0000   1.0000   1.0000   1.0000
     1.0000   1.0000   1.0000   1.0000   1.0000   1.0000   1.0000   1.0000
     1.0000   1.0000   1.0000   1.0000   1.0000   1.0000   1.0000   1.0000
     1.0000   1.0000   1.0000   1.0000   1.0000   1.0000   1.0000   1.0000
     1.0000   1.0000   1.0000   1.0000   1.0000   1.0000   1.0000   1.0000
     1.0000   1.0000   1.0000   1.0000   1.0000   1.0000   1.0000   1.0000
     1.0000   1.0000   1.0000   1.0000   1.0000   1.0000   1.0000   1.0000
     1.0000   1.0000   1.0000   1.0000   1.0000   1.0000   1.0000   1.0000
     1.0000   1.0000   1.0000   1.0000   1.0000   1.0000   1.0000   1.0000
     1.0000   1.0000   1.0000   1.0000   1.0000   1.0000   1.0000   1.0000
     0.0000   0.0000   0.0000   0.0000   0.0000   0.0000   0.0000   0.0000
     0.0000   0.0000   0.0000   0.0000   0.0000   0.0000   0.0000   0.0000
     0.0000   0.0000   0.0000   0.0000   0.0000   0.0000   0.0000   0.0000

 ------ SPIN DOWN ----------


          k = 0.0000 0.0000 0.0000 (144701 PWs)   bands (ev):

   -22.0626 -21.1796 -20.8720 -20.8056 -20.7521 -20.7259 -20.6114 -20.1344
   -20.0189 -19.8098 -19.8065 -19.7556 -19.6624 -19.4931 -19.4924 -19.3606
   -19.3390 -19.3232 -19.0782 -18.7988 -18.5071 -18.4384 -18.3797 -18.3416
   -18.3403 -18.3099 -18.2987 -18.2684 -18.2663 -18.2597 -18.2240 -18.1405
   -18.1179 -17.7335 -17.6520 -15.3480 -13.2489 -12.5504 -12.5389 -12.2412
   -12.0883 -11.8027 -11.7956 -11.7553 -11.7462 -11.7022 -11.6917 -11.6855
   -11.6560 -11.5789 -11.5762 -11.5543 -11.5020 -11.0135 -10.7945 -10.6927
   -10.6196 -10.5685 -10.4931 -10.4238 -10.3937  -9.7022  -9.4496  -9.2464
    -9.2254  -9.1753  -9.1618  -9.1407  -9.1187  -9.0435  -9.0348  -9.0099
    -9.0024  -8.9999  -8.9856  -8.9616  -8.9258  -8.8904  -8.7840  -8.5965
    -8.5187  -8.2350  -8.2016  -8.1546  -8.1225  -8.0753  -7.9981  -7.8547
    -7.8510  -7.7359  -7.6897  -7.6377  -7.6359  -7.5172  -7.5036  -7.3921
    -7.3181  -7.3083  -7.2531  -7.2164  -7.1346  -7.1216  -7.0113  -7.0088
    -6.9849  -6.9391  -6.9113  -6.8441  -6.8382  -6.8133  -6.7936  -6.6935
    -6.4650  -6.3785  -6.2845  -6.2326  -6.2138  -6.1877  -6.0432  -5.9823
    -5.9480  -5.9001  -5.8830  -5.7932  -5.3763  -5.0092  -4.9769  -4.9679
    -4.8026  -4.7759  -4.7387  -4.7260  -4.7077  -4.6905  -4.6560  -4.6535
    -4.6438  -4.5787  -4.5591  -4.5230  -4.4638  -3.9346  -3.6628  -3.0460
     0.3100   1.0369   1.0679   1.1213   1.1722   1.1938   1.4648   1.7153
     1.7797   1.7836   1.8214   1.8347   1.8773   1.8876   1.9029   1.9128
     1.9147   1.9167   1.9380   1.9689   1.9852   1.9880   2.0399   2.0718

     occupation numbers 
     1.0000   1.0000   1.0000   1.0000   1.0000   1.0000   1.0000   1.0000
     1.0000   1.0000   1.0000   1.0000   1.0000   1.0000   1.0000   1.0000
     1.0000   1.0000   1.0000   1.0000   1.0000   1.0000   1.0000   1.0000
     1.0000   1.0000   1.0000   1.0000   1.0000   1.0000   1.0000   1.0000
     1.0000   1.0000   1.0000   1.0000   1.0000   1.0000   1.0000   1.0000
     1.0000   1.0000   1.0000   1.0000   1.0000   1.0000   1.0000   1.0000
     1.0000   1.0000   1.0000   1.0000   1.0000   1.0000   1.0000   1.0000
     1.0000   1.0000   1.0000   1.0000   1.0000   1.0000   1.0000   1.0000
     1.0000   1.0000   1.0000   1.0000   1.0000   1.0000   1.0000   1.0000
     1.0000   1.0000   1.0000   1.0000   1.0000   1.0000   1.0000   1.0000
     1.0000   1.0000   1.0000   1.0000   1.0000   1.0000   1.0000   1.0000
     1.0000   1.0000   1.0000   1.0000   1.0000   1.0000   1.0000   1.0000
     1.0000   1.0000   1.0000   1.0000   1.0000   1.0000   1.0000   1.0000
     1.0000   1.0000   1.0000   1.0000   1.0000   1.0000   1.0000   1.0000
     1.0000   1.0000   1.0000   1.0000   1.0000   1.0000   1.0000   1.0000
     1.0000   1.0000   1.0000   1.0000   1.0000   1.0000   1.0000   1.0000
     1.0000   1.0000   1.0000   1.0000   1.0000   1.0000   1.0000   1.0000
     1.0000   1.0000   1.0000   1.0000   1.0000   1.0000   1.0000   1.0000
     0.0000   0.0000   0.0000   0.0000   0.0000   0.0000   0.0000   0.0000
     0.0000   0.0000   0.0000   0.0000   0.0000   0.0000   0.0000   0.0000
     0.0000   0.0000   0.0000   0.0000   0.0000   0.0000   0.0000   0.0000

     highest occupied, lowest unoccupied level (ev):    -3.0458    0.3096

!    total energy              =    -923.93287224 Ry
     Harris-Foulkes estimate   =    -923.93287225 Ry
     estimated scf accuracy    <          7.4E-09 Ry

     The total energy is the sum of the following terms:

     one-electron contribution =   -6004.59046033 Ry
     hartree contribution      =    3060.46339784 Ry
     xc contribution           =    -264.87024136 Ry
     ewald contribution        =    2285.06443160 Ry

     total magnetization       =     0.00 Bohr mag/cell
     absolute magnetization    =     0.00 Bohr mag/cell

     convergence has been achieved in  15 iterations

     Writing output data file BN.save
 
     init_run     :      2.35s CPU      2.79s WALL (       1 calls)
     electrons    :     25.52s CPU     25.89s WALL (       1 calls)

     Called by init_run:
     wfcinit      :      0.52s CPU      0.55s WALL (       1 calls)
     wfcinit:atom :      0.00s CPU      0.00s WALL (       1 calls)
     wfcinit:wfcr :      0.49s CPU      0.52s WALL (       1 calls)
     potinit      :      0.42s CPU      0.43s WALL (       1 calls)

     Called by electrons:
     c_bands      :     22.89s CPU     23.15s WALL (      15 calls)
     sum_band     :      1.42s CPU      1.44s WALL (      15 calls)
     v_of_rho     :      0.74s CPU      0.75s WALL (      16 calls)
     v_h          :      0.03s CPU      0.03s WALL (      16 calls)
     v_xc         :      0.70s CPU      0.72s WALL (      16 calls)
     mix_rho      :      0.22s CPU      0.22s WALL (      15 calls)

     Called by c_bands:
     init_us_2    :      0.21s CPU      0.22s WALL (      31 calls)
     cegterg      :     21.38s CPU     21.63s WALL (      15 calls)

     Called by sum_band:

     Called by *egterg:
     h_psi        :     10.71s CPU     10.80s WALL (      94 calls)
     g_psi        :      0.05s CPU      0.05s WALL (      78 calls)
     cdiaghg      :      6.86s CPU      6.90s WALL (      93 calls)
     cegterg:over :      1.71s CPU      1.72s WALL (      78 calls)
     cegterg:upda :      1.04s CPU      1.05s WALL (      78 calls)
     cegterg:last :      0.39s CPU      0.40s WALL (      16 calls)

     Called by h_psi:
     h_psi:pot    :     10.52s CPU     10.62s WALL (      94 calls)
     h_psi:calbec :      1.60s CPU      1.61s WALL (      94 calls)
     vloc_psi     :      7.44s CPU      7.52s WALL (      94 calls)
     add_vuspsi   :      1.47s CPU      1.48s WALL (      94 calls)

     General routines
     calbec       :      1.60s CPU      1.61s WALL (      94 calls)
     fft          :      0.56s CPU      0.58s WALL (     333 calls)
     fftw         :      7.96s CPU      8.04s WALL (   18106 calls)
 
     Parallel routines
     fft_scatter  :      4.97s CPU      5.03s WALL (   18439 calls)
 
     PWSCF        :    30.69s CPU        32.46s WALL

 
   This run was terminated on:  22:55:44  10Feb2021            

=------------------------------------------------------------------------------=
   JOB DONE.
=------------------------------------------------------------------------------=
