
                                 *****************
                                 * O   R   C   A *
                                 *****************

           --- An Ab Initio, DFT and Semiempirical electronic structure package ---

                  #######################################################
                  #                        -***-                        #
                  #          Department of theory and spectroscopy      #
                  #               Directorship: Frank Neese             #
                  #        Max Planck Institute fuer Kohlenforschung    #
                  #                Kaiser Wilhelm Platz 1               #
                  #                 D-45470 Muelheim/Ruhr               #
                  #                      Germany                        #
                  #                                                     #
                  #                  All rights reserved                #
                  #                        -***-                        #
                  #######################################################


                         Program Version 4.2.1 -  RELEASE  -


 With contributions from (in alphabetic order):
   Daniel Aravena         : Magnetic Suceptibility
   Michael Atanasov       : Ab Initio Ligand Field Theory (pilot matlab implementation)
   Alexander A. Auer      : GIAO ZORA, VPT2
   Ute Becker             : Parallelization
   Giovanni Bistoni       : ED, misc. LED, open-shell LED, HFLD
   Martin Brehm           : Molecular dynamics
   Dmytro Bykov           : SCF Hessian
   Vijay G. Chilkuri      : MRCI spin determinant printing, contributions to CSF-ICE
   Dipayan Datta          : RHF DLPNO-CCSD density
   Achintya Kumar Dutta   : EOM-CC, STEOM-CC
   Dmitry Ganyushin       : Spin-Orbit,Spin-Spin,Magnetic field MRCI
   Miquel Garcia          : C-PCM Hessian, Gaussian charge scheme
   Yang Guo               : DLPNO-NEVPT2, CIM, IAO-localization
   Andreas Hansen         : Spin unrestricted coupled pair/coupled cluster methods
   Benjamin Helmich-Paris : CASSCF linear response (MC-RPA)
   Lee Huntington         : MR-EOM, pCC
   Robert Izsak           : Overlap fitted RIJCOSX, COSX-SCS-MP3, EOM
   Christian Kollmar      : KDIIS, OOCD, Brueckner-CCSD(T), CCSD density
   Simone Kossmann        : Meta GGA functionals, TD-DFT gradient, OOMP2, MP2 Hessian
   Martin Krupicka        : AUTO-CI
   Lucas Lang             : DCDCAS
   Dagmar Lenk            : GEPOL surface, SMD
   Dimitrios Liakos       : Extrapolation schemes; Compound Job, initial MDCI parallelization
   Dimitrios Manganas     : Further ROCIS development; embedding schemes
   Dimitrios Pantazis     : SARC Basis sets
   Taras Petrenko         : DFT Hessian,TD-DFT gradient, ASA, ECA, R-Raman, ABS, FL, XAS/XES, NRVS
   Peter Pinski           : DLPNO-MP2, DLPNO-MP2 Gradient
   Christoph Reimann      : Effective Core Potentials
   Marius Retegan         : Local ZFS, SOC
   Christoph Riplinger    : Optimizer, TS searches, QM/MM, DLPNO-CCSD(T), (RO)-DLPNO pert. Triples
   Tobias Risthaus        : Range-separated hybrids, TD-DFT gradient, RPA, STAB
   Michael Roemelt        : Original ROCIS implementation
   Masaaki Saitow         : Open-shell DLPNO-CCSD energy and density
   Barbara Sandhoefer     : DKH picture change effects
   Avijit Sen             : IP-ROCIS
   Kantharuban Sivalingam : CASSCF convergence, NEVPT2, FIC-MRCI
   Bernardo de Souza      : ESD, SOC TD-DFT
   Georgi Stoychev        : AutoAux, RI-MP2 NMR
   Willem Van den Heuvel  : Paramagnetic NMR
   Boris Wezisla          : Elementary symmetry handling
   Frank Wennmohs         : Technical directorship


 We gratefully acknowledge several colleagues who have allowed us to
 interface, adapt or use parts of their codes:
   Stefan Grimme, W. Hujo, H. Kruse,             : VdW corrections, initial TS optimization,
                  C. Bannwarth                     DFT functionals, gCP, sTDA/sTD-DF
   Ed Valeev, F. Pavosevic, A. Kumar             : LibInt (2-el integral package), F12 methods
   Garnet Chan, S. Sharma, J. Yang, R. Olivares  : DMRG
   Ulf Ekstrom                                   : XCFun DFT Library
   Mihaly Kallay                                 : mrcc  (arbitrary order and MRCC methods)
   Andreas Klamt, Michael Diedenhofen            : otool_cosmo (COSMO solvation model)
   Jiri Pittner, Ondrej Demel                    : Mk-CCSD
   Frank Weinhold                                : gennbo (NPA and NBO analysis)
   Christopher J. Cramer and Donald G. Truhlar   : smd solvation model
   Lars Goerigk                                  : TD-DFT with DH, B97 family of functionals
   V. Asgeirsson, H. Jonsson                     : NEB implementation
   FAccTs GmbH                                   : IRC, NEB, NEB-TS, Multilevel, MM, QM/MM, CI optimization
   S Lehtola, MJT Oliveira, MAL Marques          : LibXC Library


 Your calculation uses the libint2 library for the computation of 2-el integrals
 For citations please refer to: http://libint.valeyev.net

 Your ORCA version has been built with support for libXC version: 4.2.3
 For citations please refer to: https://tddft.org/programs/libxc/

 This ORCA versions uses:
   CBLAS   interface :  Fast vector & matrix operations
   LAPACKE interface :  Fast linear algebra routines
   SCALAPACK package :  Parallel linear algebra routines




***************************************
The coordinates will be read from file: nv.xyz
***************************************


----- Orbital basis set information -----
Your calculation utilizes the basis: EPR-II
   V. Barone, in Recent Advances in Density Functional Methods, Part 1 (ed. D. P. Chong), World Scientific, Singapore, 1995, p. 287.

----- AuxJ basis set information -----
Your calculation utilizes the AutoAux generation procedure.
  G. L. Stoychev, A. A. Auer, F. Neese, J. Chem. Theory Comput. 13, 554 (2017)

----- AuxC basis set information -----
Your calculation utilizes the AutoAux generation procedure.
  G. L. Stoychev, A. A. Auer, F. Neese, J. Chem. Theory Comput. 13, 554 (2017)

----- AuxJK basis set information -----
Your calculation utilizes the AutoAux generation procedure.
  G. L. Stoychev, A. A. Auer, F. Neese, J. Chem. Theory Comput. 13, 554 (2017)

================================================================================
                                        WARNINGS
                       Please study these warnings very carefully!
================================================================================


WARNING: your system is open-shell and RHF/RKS was chosen
  ===> : WILL SWITCH to UHF/UKS


INFO   : the flag for use of LIBINT has been found!

================================================================================
                                       INPUT FILE
================================================================================
NAME = zfs.in
|  1> # Use EPR-II is a special basis set for epr, autoaux creates a large auxiliary basis
|  2> !PBE EPR-II AUTOAUX RIJCOSX
|  3> 
|  4> # use original (unoptimized) cluster xyz
|  5> *xyzfile -1 3 nv.xyz
|  6> 
|  7> # Parallelization
|  8> %PAL NPROCS 72 END
|  9> 
| 10> # ZFS calculation
| 11> %EPRNMR DTENSOR SSANDSO
| 12>     DSS     UNO
| 13>     DSOC    CP
| 14> END
| 15> 
| 16>                          ****END OF INPUT****
================================================================================

                       ****************************
                       * Single Point Calculation *
                       ****************************

---------------------------------
CARTESIAN COORDINATES (ANGSTROEM)
---------------------------------
  C      1.157558    1.015112   -2.249811
  C      1.378402   -0.467839   -4.258023
  C     -0.566330    2.847682   -2.199697
  C     -2.182908   -1.914276   -2.199804
  C      2.749355   -0.933294   -2.199700
  C     -1.654688    1.875893   -0.144983
  C      1.643784   -1.885455   -0.144986
  C     -2.454741   -0.480827   -0.145035
  C      2.451916    0.495062   -0.144933
  C      0.810965    2.366289   -0.144931
  C     -0.797221   -2.370948   -0.145037
  C      1.346403   -0.457083    0.395617
  C     -1.069052   -0.937495    0.395566
  C     -0.277373    1.394558    0.395618
  C     -1.381677    0.469134   -3.737621
  C      1.097166    0.962154   -3.737569
  C      0.284711   -1.431099   -3.737623
  C     -1.653584    1.875763   -1.693673
  C      1.643797   -1.884341   -1.693676
  C     -2.453765   -0.481332   -1.693726
  C      2.451270    0.494234   -1.693623
  C      0.810058    2.365759   -1.693621
  C     -0.797596   -2.369912   -1.693727
  C     -1.457798    0.494942   -2.249865
  C      0.300360   -1.509940   -2.249867
  C     -0.283865    1.427694   -4.258021
  C     -1.094311   -0.959639   -4.258075
  N      0.000000    0.000000    0.000000
  H      2.335822   -0.792870   -3.907906
  H      1.371633   -0.465517   -5.328003
  H     -0.569735    2.864918   -3.269544
  H     -0.762431    3.833619   -1.833101
  H     -2.936895   -2.575478   -1.826663
  H     -2.201360   -1.930457   -3.269519
  H      2.765997   -0.938920   -3.269548
  H      3.701247   -1.256449   -1.833106
  H     -2.421687    1.218385    0.207581
  H     -1.836839    2.871186    0.203028
  H      2.602406   -2.203986    0.207839
  H      0.884572   -2.554456    0.202756
  H     -3.209913   -1.151767    0.207753
  H     -2.654510    0.511157    0.202744
  H      2.265993    1.488043    0.207668
  H      3.404935    0.155150    0.203076
  H      0.607496    3.355743    0.207895
  H      1.769928    2.043289    0.202848
  H      0.155683   -2.706439    0.207562
  H     -1.568107   -3.026346    0.202936
  H      1.358214   -0.461117    1.465539
  H     -1.078464   -0.945750    1.465488
  H     -0.279828    1.406793    1.465541
  H     -2.333252    0.792181   -4.105093
  H      1.852725    1.624734   -4.105005
  H      0.480746   -2.416707   -4.105096
  H     -2.609947    2.208239   -2.039696
  H      1.848556   -2.875928   -2.039701
  H     -3.414878   -0.162851   -2.039749
  H      3.217388    1.156246   -2.039611
  H      1.566431    3.038882   -2.039609
  H     -0.607332   -3.364382   -2.039752
  H     -0.282492    1.420905   -5.328007
  H     -0.481091    2.419293   -3.907684
  H     -1.854510   -1.626289   -3.907994
  H     -1.088902   -0.954895   -5.328055

----------------------------
CARTESIAN COORDINATES (A.U.)
----------------------------
  NO LB      ZA    FRAG     MASS         X           Y           Z
   0 C     6.0000    0    12.011    2.187468    1.918284   -4.251526
   1 C     6.0000    0    12.011    2.604803   -0.884088   -8.046497
   2 C     6.0000    0    12.011   -1.070209    5.381339   -4.156825
   3 C     6.0000    0    12.011   -4.125097   -3.617458   -4.157026
   4 C     6.0000    0    12.011    5.195528   -1.763671   -4.156831
   5 C     6.0000    0    12.011   -3.126907    3.544925   -0.273977
   6 C     6.0000    0    12.011    3.106302   -3.562993   -0.273984
   7 C     6.0000    0    12.011   -4.638789   -0.908631   -0.274077
   8 C     6.0000    0    12.011    4.633450    0.935532   -0.273883
   9 C     6.0000    0    12.011    1.532501    4.471639   -0.273880
  10 C     6.0000    0    12.011   -1.506529   -4.480443   -0.274081
  11 C     6.0000    0    12.011    2.544334   -0.863762    0.747607
  12 C     6.0000    0    12.011   -2.020216   -1.771609    0.747512
  13 C     6.0000    0    12.011   -0.524158    2.635333    0.747611
  14 C     6.0000    0    12.011   -2.610992    0.886535   -7.063080
  15 C     6.0000    0    12.011    2.073343    1.818207   -7.062982
  16 C     6.0000    0    12.011    0.538025   -2.704385   -7.063084
  17 C     6.0000    0    12.011   -3.124821    3.544679   -3.200578
  18 C     6.0000    0    12.011    3.106327   -3.560889   -3.200585
  19 C     6.0000    0    12.011   -4.636943   -0.909586   -3.200678
  20 C     6.0000    0    12.011    4.632229    0.933968   -3.200484
  21 C     6.0000    0    12.011    1.530787    4.470637   -3.200481
  22 C     6.0000    0    12.011   -1.507238   -4.478484   -3.200681
  23 C     6.0000    0    12.011   -2.754839    0.935304   -4.251629
  24 C     6.0000    0    12.011    0.567598   -2.853373   -4.251633
  25 C     6.0000    0    12.011   -0.536426    2.697951   -8.046494
  26 C     6.0000    0    12.011   -2.067947   -1.813456   -8.046595
  27 N     7.0000    0    14.007    0.000000    0.000000    0.000000
  28 H     1.0000    0     1.008    4.414064   -1.498308   -7.384872
  29 H     1.0000    0     1.008    2.592010   -0.879699  -10.068467
  30 H     1.0000    0     1.008   -1.076644    5.413910   -6.178543
  31 H     1.0000    0     1.008   -1.440786    7.244490   -3.464060
  32 H     1.0000    0     1.008   -5.549927   -4.866949   -3.451893
  33 H     1.0000    0     1.008   -4.159968   -3.648035   -6.178495
  34 H     1.0000    0     1.008    5.226976   -1.774301   -6.178550
  35 H     1.0000    0     1.008    6.994342   -2.374344   -3.464069
  36 H     1.0000    0     1.008   -4.576325    2.302414    0.392271
  37 H     1.0000    0     1.008   -3.471122    5.425755    0.383668
  38 H     1.0000    0     1.008    4.917835   -4.164931    0.392758
  39 H     1.0000    0     1.008    1.671599   -4.827222    0.383154
  40 H     1.0000    0     1.008   -6.065856   -2.176525    0.392597
  41 H     1.0000    0     1.008   -5.016298    0.965946    0.383131
  42 H     1.0000    0     1.008    4.282106    2.811994    0.392436
  43 H     1.0000    0     1.008    6.434395    0.293190    0.383759
  44 H     1.0000    0     1.008    1.148000    6.341435    0.392864
  45 H     1.0000    0     1.008    3.344679    3.861256    0.383326
  46 H     1.0000    0     1.008    0.294198   -5.114428    0.392235
  47 H     1.0000    0     1.008   -2.963294   -5.718964    0.383494
  48 H     1.0000    0     1.008    2.566652   -0.871385    2.769468
  49 H     1.0000    0     1.008   -2.038001   -1.787208    2.769372
  50 H     1.0000    0     1.008   -0.528799    2.658453    2.769471
  51 H     1.0000    0     1.008   -4.409208    1.497006   -7.757501
  52 H     1.0000    0     1.008    3.501142    3.070302   -7.757336
  53 H     1.0000    0     1.008    0.908479   -4.566915   -7.757507
  54 H     1.0000    0     1.008   -4.932085    4.172966   -3.854467
  55 H     1.0000    0     1.008    3.493264   -5.434716   -3.854476
  56 H     1.0000    0     1.008   -6.453185   -0.307744   -3.854568
  57 H     1.0000    0     1.008    6.079982    2.184989   -3.854305
  58 H     1.0000    0     1.008    2.960126    5.742655   -3.854302
  59 H     1.0000    0     1.008   -1.147691   -6.357760   -3.854573
  60 H     1.0000    0     1.008   -0.533832    2.685122  -10.068475
  61 H     1.0000    0     1.008   -0.909131    4.571801   -7.384452
  62 H     1.0000    0     1.008   -3.504516   -3.073241   -7.385038
  63 H     1.0000    0     1.008   -2.057726   -1.804489  -10.068564

--------------------------------
INTERNAL COORDINATES (ANGSTROEM)
--------------------------------
 C      0   0   0     0.000000000000     0.00000000     0.00000000
 C      1   0   0     2.506159188624     0.00000000     0.00000000
 C      1   2   0     2.516468737861   120.47980033     0.00000000
 C      2   1   3     4.360203421269    75.28951497   283.77948098
 C      1   2   3     2.516468891471    60.13666439   174.71907254
 C      3   1   2     2.520068779896    91.79194710   121.28833101
 C      5   1   2     2.520068762824    91.79201994   236.05607764
 C      6   3   1     2.488818367545   120.26272270   304.19020212
 C      7   5   1     2.513948948418    60.08027953   306.41229828
 C      9   7   5     2.488817352328   120.00002879   109.82545099
 C      7   5   1     2.488816777221   120.26270159    55.80983233
 C      7   5   1     1.555934702444    91.16206223   325.68709313
 C      8   6   3     1.555934052477    89.52038814    91.06561731
 C      6   3   1     1.555934061436    91.16212213    34.31292443
 C      3   1   2     2.947455098545    65.88562639    32.41919377
 C      1   2   3     1.489925410430    35.15414078   323.08151360
 C      2   1   3     1.547529030415    92.09616879   273.73521378
 C      3   1   2     1.543634497031    91.74891423    85.78589531
 C      5   1   2     1.543634475393    91.74900364   271.55851521
 C      4   2   1     1.543634426361    89.43441786    30.89183769
 C      1   2   3     1.501448810392    90.89532351   191.81515949
 C      1   2   3     1.501449344494   148.15946932   329.09681936
 C      4   2   1     1.543633746669    61.29331667   278.87882688
 C     15   3   1     1.489925437918    58.60967737    79.25168917
 C     17   2   1     1.489925476704   111.18022713   326.95804085
 C     16   1   2     1.547528290682   111.18021289   121.75553489
 C     17   2   1     1.547528292485   109.09004226    89.92306832
 N     12   7   5     1.475886138790   111.44049749    93.52608412
 H      2   1   3     1.069990716924    89.79352602   164.26253075
 H      2   1   3     1.070004294790   143.07770561    40.86734302
 H      3   1   2     1.069991509773    89.65616667   336.17389652
 H      3   1   2     1.070008907428   143.45442867   213.40182392
 H      4   2   1     1.070008629979   160.93593853   213.27452140
 H      4   2   1     1.069996784561    63.07524131   143.53512800
 H     29   2   1     0.783506147549   144.53757485    32.14134806
 H      5   1   2     1.070008457088   143.45441154   143.94258783
 H      6   3   1     1.070002931317   144.60622175   267.56155979
 H      6   3   1     1.069998802551    88.85452186   143.28877488
 H      7   5   1     1.070001689858    89.32902228   216.43024005
 H      7   5   1     1.069995564480   144.34073002    91.60649890
 H      8   6   3     1.070002207548   145.14813581   215.49452431
 H     37   6   3     0.744581472804   143.67474239    62.06104383
 H      9   7   5     1.070002896817   145.37732650   145.27378865
 H      9   7   5     1.069998336888    89.16959386   270.84373778
 H     10   9   7     1.070002154011   145.14812963   144.76011296
 H     43   9   7     0.744581167460   143.67473629   300.54055363
 H     40   7   5     0.744581001845   145.51897271   298.58473537
 H     11   7   5     1.069998826759   145.69948101   144.51454587
 H     12   7   5     1.069995472816   109.98972407   211.05044892
 H     13   8   6     1.069995477080   109.98975806    90.79100384
 H     14   6   3     1.069995466064   109.98975812   148.94952876
 H     15   3   1     1.069995020894   100.46116417   182.87308404
 H     16   1   2     1.069995530638   106.99377718   240.87773463
 H     17   2   1     1.069995470630   109.17096223   209.14698705
 H     18   3   1     1.070001082899   109.14081204   209.46733766
 H     19   5   1     1.070001544360   109.14088143   150.53266272
 H     20   4   2     1.070001077080   109.14085337   120.92648836
 H     21   1   2     1.070001584171   106.41034517    92.35939566
 H     22   1   2     1.070001596605   106.41041643   291.94871450
 H     23   4   2     1.070001548491   109.14085331   258.30749265
 H     26  16   1     1.070008557448   109.46621817   177.47400824
 H     31   3   1     0.783365299587   143.60830343    31.99437327
 H     34   4   2     0.787701494070   142.83583392   341.07939128
 H     27  17   2     1.070004297032   109.46009775    59.54970981

---------------------------
INTERNAL COORDINATES (A.U.)
---------------------------
 C      0   0   0     0.000000000000     0.00000000     0.00000000
 C      1   0   0     4.735954514510     0.00000000     0.00000000
 C      1   2   0     4.755436739131   120.47980033     0.00000000
 C      2   1   3     8.239590354385    75.28951497   283.77948098
 C      1   2   3     4.755437029412    60.13666439   174.71907254
 C      3   1   2     4.762239832649    91.79194710   121.28833101
 C      5   1   2     4.762239800388    91.79201994   236.05607764
 C      6   3   1     4.703185111732   120.26272270   304.19020212
 C      7   5   1     4.750675027168    60.08027953   306.41229828
 C      9   7   5     4.703183193251   120.00002879   109.82545099
 C      7   5   1     4.703182106456   120.26270159    55.80983233
 C      7   5   1     2.940290469883    91.16206223   325.68709313
 C      8   6   3     2.940289241623    89.52038814    91.06561731
 C      6   3   1     2.940289258555    91.16212213    34.31292443
 C      3   1   2     5.569882928279    65.88562639    32.41919377
 C      1   2   3     2.815550985683    35.15414078   323.08151360
 C      2   1   3     2.924406051776    92.09616879   273.73521378
 C      3   1   2     2.917046450261    91.74891423    85.78589531
 C      5   1   2     2.917046409372    91.74900364   271.55851521
 C      4   2   1     2.917046316715    89.43441786    30.89183769
 C      1   2   3     2.837327055743    90.89532351   191.81515949
 C      1   2   3     2.837328065049   148.15946932   329.09681936
 C      4   2   1     2.917045032284    61.29331667   278.87882688
 C     15   3   1     2.815551037628    58.60967737    79.25168917
 C     17   2   1     2.815551110922   111.18022713   326.95804085
 C     16   1   2     2.924404653885   111.18021289   121.75553489
 C     17   2   1     2.924404657292   109.09004226    89.92306832
 N     12   7   5     2.789020607163   111.44049749    93.52608412
 H      2   1   3     2.021989420824    89.79352602   164.26253075
 H      2   1   3     2.022015079272   143.07770561    40.86734302
 H      3   1   2     2.021990919092    89.65616667   336.17389652
 H      3   1   2     2.022023795895   143.45442867   213.40182392
 H      4   2   1     2.022023271592   160.93593853   213.27452140
 H      4   2   1     2.022000886997    63.07524131   143.53512800
 H     29   2   1     1.480612043111   144.53757485    32.14134806
 H      5   1   2     2.022022944876   143.45441154   143.94258783
 H      6   3   1     2.022012502682   144.60622175   267.56155979
 H      6   3   1     2.022004700446    88.85452186   143.28877488
 H      7   5   1     2.022010156665    89.32902228   216.43024005
 H      7   5   1     2.021998581378   144.34073002    91.60649890
 H      8   6   3     2.022011134957   145.14813581   215.49452431
 H     37   6   3     1.407055067992   143.67474239    62.06104383
 H      9   7   5     2.022012437487   145.37732650   145.27378865
 H      9   7   5     2.022003820470    89.16959386   270.84373778
 H     10   9   7     2.022011033787   145.14812963   144.76011296
 H     43   9   7     1.407054490975   143.67473629   300.54055363
 H     40   7   5     1.407054178008   145.51897271   298.58473537
 H     11   7   5     2.022004746192   145.69948101   144.51454587
 H     12   7   5     2.021998408157   109.98972407   211.05044892
 H     13   8   6     2.021998416216   109.98975806    90.79100384
 H     14   6   3     2.021998395399   109.98975812   148.94952876
 H     15   3   1     2.021997554148   100.46116417   182.87308404
 H     16   1   2     2.021998517425   106.99377718   240.87773463
 H     17   2   1     2.021998404027   109.17096223   209.14698705
 H     18   3   1     2.022009009678   109.14081204   209.46733766
 H     19   5   1     2.022009881714   109.14088143   150.53266272
 H     20   4   2     2.022008998682   109.14085337   120.92648836
 H     21   1   2     2.022009956945   106.41034517    92.35939566
 H     22   1   2     2.022009980442   106.41041643   291.94871450
 H     23   4   2     2.022009889519   109.14085331   258.30749265
 H     26  16   1     2.022023134529   109.46621817   177.47400824
 H     31   3   1     1.480345879037   143.60830343    31.99437327
 H     34   4   2     1.488540099074   142.83583392   341.07939128
 H     27  17   2     2.022015083510   109.46009775    59.54970981

---------------------
BASIS SET INFORMATION
---------------------
There are 3 groups of distinct atoms

 Group   1 Type C   : 10s5p1d contracted to 6s2p1d pattern {511111/41/1}
 Group   2 Type N   : 10s5p1d contracted to 6s2p1d pattern {511111/41/1}
 Group   3 Type H   : 6s1p contracted to 4s1p pattern {3111/1}

Atom   0C    basis set group =>   1
Atom   1C    basis set group =>   1
Atom   2C    basis set group =>   1
Atom   3C    basis set group =>   1
Atom   4C    basis set group =>   1
Atom   5C    basis set group =>   1
Atom   6C    basis set group =>   1
Atom   7C    basis set group =>   1
Atom   8C    basis set group =>   1
Atom   9C    basis set group =>   1
Atom  10C    basis set group =>   1
Atom  11C    basis set group =>   1
Atom  12C    basis set group =>   1
Atom  13C    basis set group =>   1
Atom  14C    basis set group =>   1
Atom  15C    basis set group =>   1
Atom  16C    basis set group =>   1
Atom  17C    basis set group =>   1
Atom  18C    basis set group =>   1
Atom  19C    basis set group =>   1
Atom  20C    basis set group =>   1
Atom  21C    basis set group =>   1
Atom  22C    basis set group =>   1
Atom  23C    basis set group =>   1
Atom  24C    basis set group =>   1
Atom  25C    basis set group =>   1
Atom  26C    basis set group =>   1
Atom  27N    basis set group =>   2
Atom  28H    basis set group =>   3
Atom  29H    basis set group =>   3
Atom  30H    basis set group =>   3
Atom  31H    basis set group =>   3
Atom  32H    basis set group =>   3
Atom  33H    basis set group =>   3
Atom  34H    basis set group =>   3
Atom  35H    basis set group =>   3
Atom  36H    basis set group =>   3
Atom  37H    basis set group =>   3
Atom  38H    basis set group =>   3
Atom  39H    basis set group =>   3
Atom  40H    basis set group =>   3
Atom  41H    basis set group =>   3
Atom  42H    basis set group =>   3
Atom  43H    basis set group =>   3
Atom  44H    basis set group =>   3
Atom  45H    basis set group =>   3
Atom  46H    basis set group =>   3
Atom  47H    basis set group =>   3
Atom  48H    basis set group =>   3
Atom  49H    basis set group =>   3
Atom  50H    basis set group =>   3
Atom  51H    basis set group =>   3
Atom  52H    basis set group =>   3
Atom  53H    basis set group =>   3
Atom  54H    basis set group =>   3
Atom  55H    basis set group =>   3
Atom  56H    basis set group =>   3
Atom  57H    basis set group =>   3
Atom  58H    basis set group =>   3
Atom  59H    basis set group =>   3
Atom  60H    basis set group =>   3
Atom  61H    basis set group =>   3
Atom  62H    basis set group =>   3
Atom  63H    basis set group =>   3
---------------------------------
AUXILIARY/J BASIS SET INFORMATION
---------------------------------
There are 3 groups of distinct atoms

 Group   1 Type C   : 17s13p12d2f contracted to 17s13p12d2f pattern {11111111111111111/1111111111111/111111111111/11}
 Group   2 Type N   : 17s13p12d2f contracted to 17s13p12d2f pattern {11111111111111111/1111111111111/111111111111/11}
 Group   3 Type H   : 15s6p1d contracted to 15s6p1d pattern {111111111111111/111111/1}

Atom   0C    basis set group =>   1
Atom   1C    basis set group =>   1
Atom   2C    basis set group =>   1
Atom   3C    basis set group =>   1
Atom   4C    basis set group =>   1
Atom   5C    basis set group =>   1
Atom   6C    basis set group =>   1
Atom   7C    basis set group =>   1
Atom   8C    basis set group =>   1
Atom   9C    basis set group =>   1
Atom  10C    basis set group =>   1
Atom  11C    basis set group =>   1
Atom  12C    basis set group =>   1
Atom  13C    basis set group =>   1
Atom  14C    basis set group =>   1
Atom  15C    basis set group =>   1
Atom  16C    basis set group =>   1
Atom  17C    basis set group =>   1
Atom  18C    basis set group =>   1
Atom  19C    basis set group =>   1
Atom  20C    basis set group =>   1
Atom  21C    basis set group =>   1
Atom  22C    basis set group =>   1
Atom  23C    basis set group =>   1
Atom  24C    basis set group =>   1
Atom  25C    basis set group =>   1
Atom  26C    basis set group =>   1
Atom  27N    basis set group =>   2
Atom  28H    basis set group =>   3
Atom  29H    basis set group =>   3
Atom  30H    basis set group =>   3
Atom  31H    basis set group =>   3
Atom  32H    basis set group =>   3
Atom  33H    basis set group =>   3
Atom  34H    basis set group =>   3
Atom  35H    basis set group =>   3
Atom  36H    basis set group =>   3
Atom  37H    basis set group =>   3
Atom  38H    basis set group =>   3
Atom  39H    basis set group =>   3
Atom  40H    basis set group =>   3
Atom  41H    basis set group =>   3
Atom  42H    basis set group =>   3
Atom  43H    basis set group =>   3
Atom  44H    basis set group =>   3
Atom  45H    basis set group =>   3
Atom  46H    basis set group =>   3
Atom  47H    basis set group =>   3
Atom  48H    basis set group =>   3
Atom  49H    basis set group =>   3
Atom  50H    basis set group =>   3
Atom  51H    basis set group =>   3
Atom  52H    basis set group =>   3
Atom  53H    basis set group =>   3
Atom  54H    basis set group =>   3
Atom  55H    basis set group =>   3
Atom  56H    basis set group =>   3
Atom  57H    basis set group =>   3
Atom  58H    basis set group =>   3
Atom  59H    basis set group =>   3
Atom  60H    basis set group =>   3
Atom  61H    basis set group =>   3
Atom  62H    basis set group =>   3
Atom  63H    basis set group =>   3
---------------------------------
AUXILIARY/C BASIS SET INFORMATION
---------------------------------
There are 3 groups of distinct atoms

 Group   1 Type C   : 17s13p12d2f contracted to 17s13p12d2f pattern {11111111111111111/1111111111111/111111111111/11}
 Group   2 Type N   : 17s13p12d2f contracted to 17s13p12d2f pattern {11111111111111111/1111111111111/111111111111/11}
 Group   3 Type H   : 15s6p1d contracted to 15s6p1d pattern {111111111111111/111111/1}

Atom   0C    basis set group =>   1
Atom   1C    basis set group =>   1
Atom   2C    basis set group =>   1
Atom   3C    basis set group =>   1
Atom   4C    basis set group =>   1
Atom   5C    basis set group =>   1
Atom   6C    basis set group =>   1
Atom   7C    basis set group =>   1
Atom   8C    basis set group =>   1
Atom   9C    basis set group =>   1
Atom  10C    basis set group =>   1
Atom  11C    basis set group =>   1
Atom  12C    basis set group =>   1
Atom  13C    basis set group =>   1
Atom  14C    basis set group =>   1
Atom  15C    basis set group =>   1
Atom  16C    basis set group =>   1
Atom  17C    basis set group =>   1
Atom  18C    basis set group =>   1
Atom  19C    basis set group =>   1
Atom  20C    basis set group =>   1
Atom  21C    basis set group =>   1
Atom  22C    basis set group =>   1
Atom  23C    basis set group =>   1
Atom  24C    basis set group =>   1
Atom  25C    basis set group =>   1
Atom  26C    basis set group =>   1
Atom  27N    basis set group =>   2
Atom  28H    basis set group =>   3
Atom  29H    basis set group =>   3
Atom  30H    basis set group =>   3
Atom  31H    basis set group =>   3
Atom  32H    basis set group =>   3
Atom  33H    basis set group =>   3
Atom  34H    basis set group =>   3
Atom  35H    basis set group =>   3
Atom  36H    basis set group =>   3
Atom  37H    basis set group =>   3
Atom  38H    basis set group =>   3
Atom  39H    basis set group =>   3
Atom  40H    basis set group =>   3
Atom  41H    basis set group =>   3
Atom  42H    basis set group =>   3
Atom  43H    basis set group =>   3
Atom  44H    basis set group =>   3
Atom  45H    basis set group =>   3
Atom  46H    basis set group =>   3
Atom  47H    basis set group =>   3
Atom  48H    basis set group =>   3
Atom  49H    basis set group =>   3
Atom  50H    basis set group =>   3
Atom  51H    basis set group =>   3
Atom  52H    basis set group =>   3
Atom  53H    basis set group =>   3
Atom  54H    basis set group =>   3
Atom  55H    basis set group =>   3
Atom  56H    basis set group =>   3
Atom  57H    basis set group =>   3
Atom  58H    basis set group =>   3
Atom  59H    basis set group =>   3
Atom  60H    basis set group =>   3
Atom  61H    basis set group =>   3
Atom  62H    basis set group =>   3
Atom  63H    basis set group =>   3
----------------------------------
AUXILIARY/JK BASIS SET INFORMATION
----------------------------------
There are 3 groups of distinct atoms

 Group   1 Type C   : 17s13p12d2f contracted to 17s13p12d2f pattern {11111111111111111/1111111111111/111111111111/11}
 Group   2 Type N   : 17s13p12d2f contracted to 17s13p12d2f pattern {11111111111111111/1111111111111/111111111111/11}
 Group   3 Type H   : 15s6p1d contracted to 15s6p1d pattern {111111111111111/111111/1}

Atom   0C    basis set group =>   1
Atom   1C    basis set group =>   1
Atom   2C    basis set group =>   1
Atom   3C    basis set group =>   1
Atom   4C    basis set group =>   1
Atom   5C    basis set group =>   1
Atom   6C    basis set group =>   1
Atom   7C    basis set group =>   1
Atom   8C    basis set group =>   1
Atom   9C    basis set group =>   1
Atom  10C    basis set group =>   1
Atom  11C    basis set group =>   1
Atom  12C    basis set group =>   1
Atom  13C    basis set group =>   1
Atom  14C    basis set group =>   1
Atom  15C    basis set group =>   1
Atom  16C    basis set group =>   1
Atom  17C    basis set group =>   1
Atom  18C    basis set group =>   1
Atom  19C    basis set group =>   1
Atom  20C    basis set group =>   1
Atom  21C    basis set group =>   1
Atom  22C    basis set group =>   1
Atom  23C    basis set group =>   1
Atom  24C    basis set group =>   1
Atom  25C    basis set group =>   1
Atom  26C    basis set group =>   1
Atom  27N    basis set group =>   2
Atom  28H    basis set group =>   3
Atom  29H    basis set group =>   3
Atom  30H    basis set group =>   3
Atom  31H    basis set group =>   3
Atom  32H    basis set group =>   3
Atom  33H    basis set group =>   3
Atom  34H    basis set group =>   3
Atom  35H    basis set group =>   3
Atom  36H    basis set group =>   3
Atom  37H    basis set group =>   3
Atom  38H    basis set group =>   3
Atom  39H    basis set group =>   3
Atom  40H    basis set group =>   3
Atom  41H    basis set group =>   3
Atom  42H    basis set group =>   3
Atom  43H    basis set group =>   3
Atom  44H    basis set group =>   3
Atom  45H    basis set group =>   3
Atom  46H    basis set group =>   3
Atom  47H    basis set group =>   3
Atom  48H    basis set group =>   3
Atom  49H    basis set group =>   3
Atom  50H    basis set group =>   3
Atom  51H    basis set group =>   3
Atom  52H    basis set group =>   3
Atom  53H    basis set group =>   3
Atom  54H    basis set group =>   3
Atom  55H    basis set group =>   3
Atom  56H    basis set group =>   3
Atom  57H    basis set group =>   3
Atom  58H    basis set group =>   3
Atom  59H    basis set group =>   3
Atom  60H    basis set group =>   3
Atom  61H    basis set group =>   3
Atom  62H    basis set group =>   3
Atom  63H    basis set group =>   3


           ************************************************************
           *        Program running with 72 parallel MPI-processes    *
           *              working on a shared directory               *
           ************************************************************
------------------------------------------------------------------------------
                           ORCA GTO INTEGRAL CALCULATION
                           -- RI-GTO INTEGRALS CHOSEN --
------------------------------------------------------------------------------

                         BASIS SET STATISTICS AND STARTUP INFO

Gaussian basis set:
 # of primitive gaussian shells          ...  700
 # of primitive gaussian functions       ... 1164
 # of contracted shells                  ...  432
 # of contracted basis functions         ...  728
 Highest angular momentum                ...    2
 Maximum contraction depth               ...    5
Auxiliary gaussian basis set:
 # of primitive gaussian shells          ... 2024
 # of primitive gaussian functions       ... 5008
 # of contracted shells                  ... 2024
 # of contracted aux-basis functions     ... 5008
 Highest angular momentum                ...    3
 Maximum contraction depth               ...    1
Ratio of auxiliary to basis functions    ...  6.88
Integral package used                  ... LIBINT
 One Electron integrals                  ... done
 Ordering auxiliary basis shells         ... done
 Integral threshhold             Thresh  ...  1.000e-10
 Primitive cut-off               TCut    ...  1.000e-11
 Pre-screening matrix                    ... done
 Shell pair data                         ... 
 Ordering of the shell pairs             ... done (   0.016 sec) 66488 of 93528 pairs
 Determination of significant pairs      ... done (   0.000 sec)
 Creation of shell pair data             ... done (   0.013 sec)
 Storage of shell pair data              ... done (   0.091 sec)
 Shell pair data done in (   0.120 sec)
 Computing two index integrals           ... done
 Cholesky decomposition of the V-matrix  ... done


Timings:
 Total evaluation time                   ...   4.268 sec (  0.071 min)
 One electron matrix time                ...   0.622 sec (  0.010 min) = 14.6%
 Schwartz matrix evaluation time         ...   0.367 sec (  0.006 min) =  8.6%
 Two index repulsion integral time       ...   0.911 sec (  0.015 min) = 21.3%
 Cholesky decomposition of V             ...   2.225 sec (  0.037 min) = 52.1%
 Three index repulsion integral time     ...   0.000 sec (  0.000 min) =  0.0%



           ************************************************************
           *        Program running with 72 parallel MPI-processes    *
           *              working on a shared directory               *
           ************************************************************
-------------------------------------------------------------------------------
                                 ORCA SCF
-------------------------------------------------------------------------------

------------
SCF SETTINGS
------------
Hamiltonian:
 Density Functional     Method          .... DFT(GTOs)
 Exchange Functional    Exchange        .... PBE
   PBE kappa parameter   XKappa         ....  0.804000
   PBE mue parameter    XMuePBE         ....  0.219520
 Correlation Functional Correlation     .... PBE
   PBE beta parameter  CBetaPBE         ....  0.066725
 LDA part of GGA corr.  LDAOpt          .... PW91-LDA
 Gradients option       PostSCFGGA      .... off
   Density functional embedding theory  .... OFF
   NL short-range parameter             ....  6.400000
 RI-approximation to the Coulomb term is turned on
   Number of auxiliary basis functions  .... 5008
   RIJ-COSX (HFX calculated with COS-X)).... on


General Settings:
 Integral files         IntName         .... zfs
 Hartree-Fock type      HFTyp           .... UHF
 Total Charge           Charge          ....   -1
 Multiplicity           Mult            ....    3
 Number of Electrons    NEL             ....  206
 Basis Dimension        Dim             ....  728
 Nuclear Repulsion      ENuc            ....   3308.0184380952 Eh

Convergence Acceleration:
 DIIS                   CNVDIIS         .... on
   Start iteration      DIISMaxIt       ....    12
   Startup error        DIISStart       ....  0.200000
   # of expansion vecs  DIISMaxEq       ....     5
   Bias factor          DIISBfac        ....   1.050
   Max. coefficient     DIISMaxC        ....  10.000
 Newton-Raphson         CNVNR           .... off
 SOSCF                  CNVSOSCF        .... off
 Level Shifting         CNVShift        .... on
   Level shift para.    LevelShift      ....    0.2500
   Turn off err/grad.   ShiftErr        ....    0.0010
 Zerner damping         CNVZerner       .... off
 Static damping         CNVDamp         .... on
   Fraction old density DampFac         ....    0.7000
   Max. Damping (<1)    DampMax         ....    0.9800
   Min. Damping (>=0)   DampMin         ....    0.0000
   Turn off err/grad.   DampErr         ....    0.1000
 Fernandez-Rico         CNVRico         .... off

SCF Procedure:
 Maximum # iterations   MaxIter         ....   125
 SCF integral mode      SCFMode         .... Direct
   Integral package                     .... LIBINT
 Reset frequency        DirectResetFreq ....    20
 Integral Threshold     Thresh          ....  1.000e-10 Eh
 Primitive CutOff       TCut            ....  1.000e-11 Eh

Convergence Tolerance:
 Convergence Check Mode ConvCheckMode   .... Total+1el-Energy
 Convergence forced     ConvForced      .... 0
 Energy Change          TolE            ....  1.000e-06 Eh
 1-El. energy change                    ....  1.000e-03 Eh
 DIIS Error             TolErr          ....  1.000e-06


Diagonalization of the overlap matrix:
Smallest eigenvalue                        ... 1.744e-04
Time for diagonalization                   ...    0.146 sec
Threshold for overlap eigenvalues          ... 1.000e-08
Number of eigenvalues below threshold      ... 0
Time for construction of square roots      ...    0.245 sec
Total time needed                          ...    0.393 sec

-------------------
DFT GRID GENERATION
-------------------

General Integration Accuracy     IntAcc      ...  4.340
Radial Grid Type                 RadialGrid  ... Gauss-Chebyshev
Angular Grid (max. acc.)         AngularGrid ... Lebedev-110
Angular grid pruning method      GridPruning ... 3 (G Style)
Weight generation scheme         WeightScheme... Becke
Basis function cutoff            BFCut       ...    1.0000e-10
Integration weight cutoff        WCut        ...    1.0000e-14
Grids for H and He will be reduced by one unit

# of grid points (after initial pruning)     ...  74998 (   0.0 sec)
# of grid points (after weights+screening)   ...  62491 (   0.1 sec)
nearest neighbour list constructed           ...    0.0 sec
Grid point re-assignment to atoms done       ...    0.0 sec
Grid point division into batches done        ...    0.1 sec
Reduced shell lists constructed in    0.1 sec

Total number of grid points                  ...    62491
Total number of batches                      ...     1011
Average number of points per batch           ...       61
Average number of grid points per atom       ...      976
Average number of shells per batch           ...   228.94 (52.99%)
Average number of basis functions per batch  ...   459.44 (63.11%)
Average number of large shells per batch     ...   170.75 (74.58%)
Average number of large basis fcns per batch ...   339.88 (73.98%)
Maximum spatial batch extension              ...   2.55,  2.24,  2.38 au
Average spatial batch extension              ...   0.03,  0.03,  0.03 au

Time for grid setup =    0.395 sec

------------------------------
INITIAL GUESS: MODEL POTENTIAL
------------------------------
Loading Hartree-Fock densities                     ... done
Calculating cut-offs                               ... done
Setting up the integral package                    ... done
Initializing the effective Hamiltonian             ... done
Starting the Coulomb interaction                   ... done (   0.1 sec)
Reading the grid                                   ... done
Mapping shells                                     ... done
Starting the XC term evaluation                    ... done (   0.2 sec)
  promolecular density results
     # of electrons  =    204.977999624
     EX              =   -156.127092360
     EC              =     -7.167174511
     EX+EC           =   -163.294266871
Transforming the Hamiltonian                       ... done (   0.1 sec)
Diagonalizing the Hamiltonian                      ... done (   0.1 sec)
Back transforming the eigenvectors                 ... done (   0.1 sec)
Now organizing SCF variables                       ... done
                      ------------------
                      INITIAL GUESS DONE (   1.2 sec)
                      ------------------
--------------------
COSX GRID GENERATION
--------------------

General Integration Accuracy     IntAcc      ...  3.340
Radial Grid Type                 RadialGrid  ... Gauss-Chebyshev
Angular Grid (max. acc.)         AngularGrid ... Lebedev-50
Angular grid pruning method      GridPruning ... 3 (G Style)
Weight generation scheme         WeightScheme... Becke
Basis function cutoff            BFCut       ...    1.0000e-10
Integration weight cutoff        WCut        ...    1.0000e-14
Grids for H and He will be reduced by one unit

# of grid points (after initial pruning)     ...  27746 (   0.0 sec)
# of grid points (after weights+screening)   ...  23396 (   0.0 sec)
nearest neighbour list constructed           ...    0.0 sec
Grid point re-assignment to atoms done       ...    0.0 sec
Grid point division into batches done        ...    0.0 sec
Reduced shell lists constructed in    0.0 sec

Total number of grid points                  ...    23396
Total number of batches                      ...      393
Average number of points per batch           ...       59
Average number of grid points per atom       ...      366
Average number of shells per batch           ...   223.86 (51.82%)
Average number of basis functions per batch  ...   449.00 (61.68%)
Average number of large shells per batch     ...   167.86 (74.98%)
Average number of large basis fcns per batch ...   336.71 (74.99%)
Maximum spatial batch extension              ...   2.87,  3.26,  3.07 au
Average spatial batch extension              ...   0.04,  0.04,  0.03 au

Overlap Fitting                  UseSFitting ... on
Constructing numerical overlap ... done (      0.0 sec)
Inverting numerical overlap    ... done (      0.0 sec)
Obtaining analytic overlap     ... done (      0.0 sec)
Final contraction and storage  ... done (      0.1 sec)


General Integration Accuracy     IntAcc      ...  3.670
Radial Grid Type                 RadialGrid  ... Gauss-Chebyshev
Angular Grid (max. acc.)         AngularGrid ... Lebedev-50
Angular grid pruning method      GridPruning ... 3 (G Style)
Weight generation scheme         WeightScheme... Becke
Basis function cutoff            BFCut       ...    1.0000e-10
Integration weight cutoff        WCut        ...    1.0000e-14
Grids for H and He will be reduced by one unit

# of grid points (after initial pruning)     ...  35464 (   0.0 sec)
# of grid points (after weights+screening)   ...  29832 (   0.0 sec)
nearest neighbour list constructed           ...    0.0 sec
Grid point re-assignment to atoms done       ...    0.0 sec
Grid point division into batches done        ...    0.0 sec
Reduced shell lists constructed in    0.0 sec

Total number of grid points                  ...    29832
Total number of batches                      ...      500
Average number of points per batch           ...       59
Average number of grid points per atom       ...      466
Average number of shells per batch           ...   227.88 (52.75%)
Average number of basis functions per batch  ...   458.12 (62.93%)
Average number of large shells per batch     ...   173.00 (75.92%)
Average number of large basis fcns per batch ...   348.25 (76.02%)
Maximum spatial batch extension              ...   3.12,  3.13,  2.68 au
Average spatial batch extension              ...   0.03,  0.03,  0.03 au

Overlap Fitting                  UseSFitting ... on
Constructing numerical overlap ... done (      0.0 sec)
Inverting numerical overlap    ... done (      0.0 sec)
Obtaining analytic overlap     ... done (      0.0 sec)
Final contraction and storage  ... done (      0.1 sec)


General Integration Accuracy     IntAcc      ...  4.010
Radial Grid Type                 RadialGrid  ... Gauss-Chebyshev
Angular Grid (max. acc.)         AngularGrid ... Lebedev-110
Angular grid pruning method      GridPruning ... 3 (G Style)
Weight generation scheme         WeightScheme... Becke
Basis function cutoff            BFCut       ...    1.0000e-10
Integration weight cutoff        WCut        ...    1.0000e-14
Grids for H and He will be reduced by one unit

# of grid points (after initial pruning)     ...  65152 (   0.0 sec)
# of grid points (after weights+screening)   ...  54577 (   0.1 sec)
nearest neighbour list constructed           ...    0.0 sec
Grid point re-assignment to atoms done       ...    0.0 sec
Grid point division into batches done        ...    0.0 sec
Reduced shell lists constructed in    0.1 sec

Total number of grid points                  ...    54577
Total number of batches                      ...      885
Average number of points per batch           ...       61
Average number of grid points per atom       ...      853
Average number of shells per batch           ...   225.86 (52.28%)
Average number of basis functions per batch  ...   452.86 (62.21%)
Average number of large shells per batch     ...   171.50 (75.93%)
Average number of large basis fcns per batch ...   341.79 (75.47%)
Maximum spatial batch extension              ...   2.36,  2.37,  2.42 au
Average spatial batch extension              ...   0.03,  0.03,  0.03 au

Overlap Fitting                  UseSFitting ... on
Constructing numerical overlap ... done (      0.1 sec)
Inverting numerical overlap    ... done (      0.0 sec)
Obtaining analytic overlap     ... done (      0.0 sec)
Final contraction and storage  ... done (      0.1 sec)

Time for X-Grid setup             =    1.228 sec
--------------
SCF ITERATIONS
--------------
ITER       Energy         Delta-E        Max-DP      RMS-DP      [F,P]     Damp
               ***  Starting incremental Fock matrix formation  ***
  0  -1102.3558383322   0.000000000000 7.91036235  0.02045344  0.1511539 0.7000
  1  -1102.7809548804  -0.425116548196 5.07534026  0.01277186  0.0656430 0.7000
                               ***Turning on DIIS***
  2  -1102.8709993781  -0.090044497734 0.84770362  0.00363283  0.0352311 0.0000
  3  -1103.1243525545  -0.253353176372 4.59398286  0.01134957  0.0323110 0.0000
  4  -1103.1575494473  -0.033196892872 1.48422546  0.00365506  0.0198665 0.0000
  5  -1103.1669033532  -0.009353905852 0.66772474  0.00160916  0.0058002 0.0000
  6  -1103.1682439438  -0.001340590629 0.45462725  0.00108472  0.0013992 0.0000
  7  -1103.1684509489  -0.000207005118 0.27495289  0.00064278  0.0022867 0.0000
  8  -1103.1685559193  -0.000104970319 0.57861363  0.00132654  0.0005471 0.0000
  9  -1103.1686227856  -0.000066866314 0.10532533  0.00029072  0.0007707 0.0000
 10  -1103.1686293770  -0.000006591417 0.09677561  0.00022848  0.0005462 0.0000
 11  -1103.1686340835  -0.000004706464 0.03041990  0.00006719  0.0003876 0.0000
 12  -1103.1686360427  -0.000001959208 0.00986757  0.00002000  0.0000701 0.0000
 13  -1103.1686358714   0.000000171315 0.00602891  0.00001219  0.0000872 0.0000
                 **** Energy Check signals convergence ****

               *****************************************************
               *                     SUCCESS                       *
               *           SCF CONVERGED AFTER  14 CYCLES          *
               *****************************************************

Setting up the final grid:

General Integration Accuracy     IntAcc      ...  4.670
Radial Grid Type                 RadialGrid  ... Gauss-Chebyshev
Angular Grid (max. acc.)         AngularGrid ... Lebedev-302
Angular grid pruning method      GridPruning ... 3 (G Style)
Weight generation scheme         WeightScheme... Becke
Basis function cutoff            BFCut       ...    1.0000e-10
Integration weight cutoff        WCut        ...    1.0000e-14
Grids for H and He will be reduced by one unit

# of grid points (after initial pruning)     ... 296120 (   0.0 sec)
# of grid points (after weights+screening)   ... 239124 (   0.2 sec)
nearest neighbour list constructed           ...    0.0 sec
Grid point re-assignment to atoms done       ...    0.1 sec
Grid point division into batches done        ...    0.8 sec
Reduced shell lists constructed in    0.9 sec

Total number of grid points                  ...   239124
Total number of batches                      ...     3768
Average number of points per batch           ...       63
Average number of grid points per atom       ...     3736
Average number of shells per batch           ...   226.96 (52.54%)
Average number of basis functions per batch  ...   457.00 (62.77%)
Average number of large shells per batch     ...   168.50 (74.24%)
Average number of large basis fcns per batch ...   332.94 (72.85%)
Maximum spatial batch extension              ...   1.56,  1.89,  1.80 au
Average spatial batch extension              ...   0.02,  0.02,  0.02 au

Final grid set up in    1.3 sec
Final integration                            ... done (   0.9 sec)
Change in XC energy                          ...     0.000649194
Integrated number of electrons               ...   206.000317688
Previous integrated no of electrons          ...   206.001844416

----------------
TOTAL SCF ENERGY
----------------

Total Energy       :        -1103.16798683 Eh          -30018.72704 eV

Components:
Nuclear Repulsion  :         3308.01843810 Eh           90015.75801 eV
Electronic Energy  :        -4411.18642493 Eh         -120034.48506 eV
One Electron Energy:        -8103.21319519 Eh         -220499.64103 eV
Two Electron Energy:         3692.02677027 Eh          100465.15597 eV

Virial components:
Potential Energy   :        -2203.45374577 Eh          -59959.02468 eV
Kinetic Energy     :         1100.28575893 Eh           29940.29764 eV
Virial Ratio       :            2.00261953


DFT components:
N(Alpha)           :      104.000146404881 electrons
N(Beta)            :      102.000171283092 electrons
N(Total)           :      206.000317687973 electrons
E(X)               :     -159.756428319813 Eh       
E(C)               :       -7.077043189671 Eh       
E(XC)              :     -166.833471509484 Eh       
DFET-embed. en.    :        0.000000000000 Eh       

---------------
SCF CONVERGENCE
---------------

  Last Energy change         ...   -1.5383e-07  Tolerance :   1.0000e-06
  Last MAX-Density change    ...    6.5850e-04  Tolerance :   1.0000e-05
  Last RMS-Density change    ...    1.7369e-06  Tolerance :   1.0000e-06
  Last DIIS Error            ...    3.3824e-05  Tolerance :   1.0000e-06

             **** THE GBW FILE WAS UPDATED (zfs.gbw) ****
             **** DENSITY FILE WAS UPDATED (zfs.scfp) ****
             **** ENERGY FILE WAS UPDATED (zfs.en.tmp) ****
----------------------
UHF SPIN CONTAMINATION
----------------------

Warning: in a DFT calculation there is little theoretical justification to 
         calculate <S**2> as in Hartree-Fock theory. We will do it anyways
         but you should keep in mind that the values have only limited relevance

Expectation value of <S**2>     :     2.011092
Ideal value S*(S+1) for S=1.0   :     2.000000
Deviation                       :     0.011092

             **** THE GBW FILE WAS UPDATED (zfs.gbw) ****
             **** DENSITY FILE WAS UPDATED (zfs.scfp) ****
----------------
ORBITAL ENERGIES
----------------
                 SPIN UP ORBITALS
  NO   OCC          E(Eh)            E(eV) 
   0   1.0000     -13.855760      -377.0344 
   1   1.0000      -9.801503      -266.7124 
   2   1.0000      -9.801330      -266.7077 
   3   1.0000      -9.801107      -266.7017 
   4   1.0000      -9.762982      -265.6642 
   5   1.0000      -9.762856      -265.6608 
   6   1.0000      -9.762817      -265.6597 
   7   1.0000      -9.762758      -265.6581 
   8   1.0000      -9.762748      -265.6579 
   9   1.0000      -9.762659      -265.6555 
  10   1.0000      -9.755823      -265.4694 
  11   1.0000      -9.755723      -265.4667 
  12   1.0000      -9.755473      -265.4599 
  13   1.0000      -9.749124      -265.2872 
  14   1.0000      -9.748993      -265.2836 
  15   1.0000      -9.748912      -265.2814 
  16   1.0000      -9.748500      -265.2702 
  17   1.0000      -9.748369      -265.2666 
  18   1.0000      -9.748311      -265.2650 
  19   1.0000      -9.740009      -265.0391 
  20   1.0000      -9.739687      -265.0304 
  21   1.0000      -9.739401      -265.0226 
  22   1.0000      -9.735821      -264.9251 
  23   1.0000      -9.735404      -264.9138 
  24   1.0000      -9.735392      -264.9135 
  25   1.0000      -9.734879      -264.8995 
  26   1.0000      -9.734504      -264.8893 
  27   1.0000      -9.734226      -264.8818 
  28   1.0000      -0.729721       -19.8567 
  29   1.0000      -0.667542       -18.1647 
  30   1.0000      -0.652376       -17.7520 
  31   1.0000      -0.652335       -17.7509 
  32   1.0000      -0.609388       -16.5823 
  33   1.0000      -0.598176       -16.2772 
  34   1.0000      -0.598072       -16.2744 
  35   1.0000      -0.582522       -15.8512 
  36   1.0000      -0.582411       -15.8482 
  37   1.0000      -0.545797       -14.8519 
  38   1.0000      -0.521636       -14.1944 
  39   1.0000      -0.521561       -14.1924 
  40   1.0000      -0.519000       -14.1227 
  41   1.0000      -0.515849       -14.0370 
  42   1.0000      -0.515812       -14.0360 
  43   1.0000      -0.501963       -13.6591 
  44   1.0000      -0.444686       -12.1005 
  45   1.0000      -0.444624       -12.0988 
  46   1.0000      -0.423891       -11.5346 
  47   1.0000      -0.405295       -11.0286 
  48   1.0000      -0.405264       -11.0278 
  49   1.0000      -0.400326       -10.8934 
  50   1.0000      -0.397594       -10.8191 
  51   1.0000      -0.384094       -10.4517 
  52   1.0000      -0.383988       -10.4488 
  53   1.0000      -0.358463        -9.7543 
  54   1.0000      -0.357996        -9.7416 
  55   1.0000      -0.357909        -9.7392 
  56   1.0000      -0.346512        -9.4291 
  57   1.0000      -0.312912        -8.5148 
  58   1.0000      -0.308983        -8.4079 
  59   1.0000      -0.308935        -8.4065 
  60   1.0000      -0.301324        -8.1995 
  61   1.0000      -0.301235        -8.1970 
  62   1.0000      -0.282105        -7.6765 
  63   1.0000      -0.279309        -7.6004 
  64   1.0000      -0.279211        -7.5977 
  65   1.0000      -0.275717        -7.5027 
  66   1.0000      -0.275681        -7.5017 
  67   1.0000      -0.242699        -6.6042 
  68   1.0000      -0.242655        -6.6030 
  69   1.0000      -0.238276        -6.4838 
  70   1.0000      -0.231123        -6.2892 
  71   1.0000      -0.228478        -6.2172 
  72   1.0000      -0.226333        -6.1588 
  73   1.0000      -0.226291        -6.1577 
  74   1.0000      -0.212510        -5.7827 
  75   1.0000      -0.212432        -5.7806 
  76   1.0000      -0.210170        -5.7190 
  77   1.0000      -0.197059        -5.3622 
  78   1.0000      -0.190645        -5.1877 
  79   1.0000      -0.190620        -5.1870 
  80   1.0000      -0.179324        -4.8796 
  81   1.0000      -0.179300        -4.8790 
  82   1.0000      -0.171477        -4.6661 
  83   1.0000      -0.166816        -4.5393 
  84   1.0000      -0.166770        -4.5381 
  85   1.0000      -0.161139        -4.3848 
  86   1.0000      -0.158705        -4.3186 
  87   1.0000      -0.156254        -4.2519 
  88   1.0000      -0.156175        -4.2497 
  89   1.0000      -0.146975        -3.9994 
  90   1.0000      -0.146897        -3.9973 
  91   1.0000      -0.135130        -3.6771 
  92   1.0000      -0.119942        -3.2638 
  93   1.0000      -0.119869        -3.2618 
  94   1.0000      -0.095569        -2.6006 
  95   1.0000      -0.095560        -2.6003 
  96   1.0000      -0.092641        -2.5209 
  97   1.0000      -0.077106        -2.0982 
  98   1.0000      -0.059055        -1.6070 
  99   1.0000      -0.056925        -1.5490 
 100   1.0000      -0.056484        -1.5370 
 101   1.0000       0.001992         0.0542 
 102   1.0000       0.047243         1.2856 
 103   1.0000       0.047624         1.2959 
 104   0.0000       0.096870         2.6360 
 105   0.0000       0.113779         3.0961 
 106   0.0000       0.116277         3.1641 
 107   0.0000       0.117228         3.1899 
 108   0.0000       0.124460         3.3867 
 109   0.0000       0.124906         3.3989 
 110   0.0000       0.126553         3.4437 
 111   0.0000       0.130573         3.5531 
 112   0.0000       0.131195         3.5700 
 113   0.0000       0.141391         3.8474 
 114   0.0000       0.141926         3.8620 
 115   0.0000       0.143883         3.9153 
 116   0.0000       0.150346         4.0911 
 117   0.0000       0.151098         4.1116 
 118   0.0000       0.153157         4.1676 
 119   0.0000       0.155462         4.2303 
 120   0.0000       0.178982         4.8703 
 121   0.0000       0.180263         4.9052 
 122   0.0000       0.184268         5.0142 
 123   0.0000       0.184614         5.0236 
 124   0.0000       0.184773         5.0279 
 125   0.0000       0.185432         5.0459 
 126   0.0000       0.193283         5.2595 
 127   0.0000       0.194122         5.2823 
 128   0.0000       0.195919         5.3312 
 129   0.0000       0.228168         6.2088 
 130   0.0000       0.228431         6.2159 
 131   0.0000       0.230008         6.2588 
 132   0.0000       0.239745         6.5238 
 133   0.0000       0.246459         6.7065 
 134   0.0000       0.249881         6.7996 
 135   0.0000       0.249961         6.8018 
 136   0.0000       0.251907         6.8547 
 137   0.0000       0.252387         6.8678 
 138   0.0000       0.275215         7.4890 
 139   0.0000       0.277150         7.5416 
 140   0.0000       0.277420         7.5490 
 141   0.0000       0.283572         7.7164 
 142   0.0000       0.284057         7.7296 
 143   0.0000       0.292222         7.9518 
 144   0.0000       0.292706         7.9649 
 145   0.0000       0.292782         7.9670 
 146   0.0000       0.296661         8.0726 
 147   0.0000       0.297217         8.0877 
 148   0.0000       0.297723         8.1015 
 149   0.0000       0.299482         8.1493 
 150   0.0000       0.308379         8.3914 
 151   0.0000       0.308527         8.3954 
 152   0.0000       0.311249         8.4695 
 153   0.0000       0.311735         8.4827 
 154   0.0000       0.313959         8.5433 
 155   0.0000       0.327466         8.9108 
 156   0.0000       0.331924         9.0321 
 157   0.0000       0.332119         9.0374 
 158   0.0000       0.340913         9.2767 
 159   0.0000       0.343664         9.3516 
 160   0.0000       0.344076         9.3628 
 161   0.0000       0.355047         9.6613 
 162   0.0000       0.355460         9.6725 
 163   0.0000       0.356795         9.7089 
 164   0.0000       0.366223         9.9654 
 165   0.0000       0.372325        10.1315 
 166   0.0000       0.373385        10.1603 
 167   0.0000       0.373806        10.1718 
 168   0.0000       0.381945        10.3933 
 169   0.0000       0.382168        10.3993 
 170   0.0000       0.382584        10.4106 
 171   0.0000       0.388720        10.5776 
 172   0.0000       0.389677        10.6036 
 173   0.0000       0.389914        10.6101 
 174   0.0000       0.392829        10.6894 
 175   0.0000       0.393413        10.7053 
 176   0.0000       0.394477        10.7343 
 177   0.0000       0.397115        10.8061 
 178   0.0000       0.398321        10.8389 
 179   0.0000       0.410724        11.1764 
 180   0.0000       0.411619        11.2007 
 181   0.0000       0.413570        11.2538 
 182   0.0000       0.427330        11.6283 
 183   0.0000       0.428086        11.6488 
 184   0.0000       0.428446        11.6586 
 185   0.0000       0.428909        11.6712 
 186   0.0000       0.429192        11.6789 
 187   0.0000       0.431742        11.7483 
 188   0.0000       0.432393        11.7660 
 189   0.0000       0.434055        11.8112 
 190   0.0000       0.436609        11.8807 
 191   0.0000       0.437973        11.9179 
 192   0.0000       0.438404        11.9296 
 193   0.0000       0.451078        12.2745 
 194   0.0000       0.460482        12.5303 
 195   0.0000       0.461262        12.5516 
 196   0.0000       0.467369        12.7178 
 197   0.0000       0.470937        12.8148 
 198   0.0000       0.471478        12.8296 
 199   0.0000       0.472637        12.8611 
 200   0.0000       0.482424        13.1274 
 201   0.0000       0.483220        13.1491 
 202   0.0000       0.498527        13.5656 
 203   0.0000       0.507956        13.8222 
 204   0.0000       0.509353        13.8602 
 205   0.0000       0.510934        13.9032 
 206   0.0000       0.515781        14.0351 
 207   0.0000       0.516550        14.0561 
 208   0.0000       0.527210        14.3461 
 209   0.0000       0.535042        14.5592 
 210   0.0000       0.535889        14.5823 
 211   0.0000       0.536783        14.6066 
 212   0.0000       0.541647        14.7390 
 213   0.0000       0.546972        14.8839 
 214   0.0000       0.547784        14.9060 
 215   0.0000       0.551271        15.0008 
 216   0.0000       0.557987        15.1836 
 217   0.0000       0.558961        15.2101 
 218   0.0000       0.559411        15.2223 
 219   0.0000       0.575587        15.6625 
 220   0.0000       0.579445        15.7675 
 221   0.0000       0.580435        15.7944 
 222   0.0000       0.590283        16.0624 
 223   0.0000       0.591265        16.0891 
 224   0.0000       0.599989        16.3265 
 225   0.0000       0.602995        16.4083 
 226   0.0000       0.604326        16.4445 
 227   0.0000       0.607947        16.5431 
 228   0.0000       0.616331        16.7712 
 229   0.0000       0.617846        16.8124 
 230   0.0000       0.619363        16.8537 
 231   0.0000       0.620331        16.8801 
 232   0.0000       0.621277        16.9058 
 233   0.0000       0.623030        16.9535 
 234   0.0000       0.624229        16.9861 
 235   0.0000       0.625246        17.0138 
 236   0.0000       0.634019        17.2525 
 237   0.0000       0.644433        17.5359 
 238   0.0000       0.644992        17.5511 
 239   0.0000       0.646679        17.5970 
 240   0.0000       0.657746        17.8982 
 241   0.0000       0.658303        17.9133 
 242   0.0000       0.664310        18.0768 
 243   0.0000       0.679070        18.4784 
 244   0.0000       0.697516        18.9804 
 245   0.0000       0.698750        19.0140 
 246   0.0000       0.702579        19.1182 
 247   0.0000       0.703437        19.1415 
 248   0.0000       0.708327        19.2746 
 249   0.0000       0.713780        19.4229 
 250   0.0000       0.714065        19.4307 
 251   0.0000       0.714610        19.4455 
 252   0.0000       0.729893        19.8614 
 253   0.0000       0.736039        20.0287 
 254   0.0000       0.737465        20.0674 
 255   0.0000       0.737673        20.0731 
 256   0.0000       0.744898        20.2697 
 257   0.0000       0.746261        20.3068 
 258   0.0000       0.757700        20.6181 
 259   0.0000       0.758208        20.6319 
 260   0.0000       0.761081        20.7101 
 261   0.0000       0.761386        20.7184 
 262   0.0000       0.762054        20.7365 
 263   0.0000       0.779257        21.2047 
 264   0.0000       0.812092        22.0981 
 265   0.0000       0.828095        22.5336 
 266   0.0000       0.852654        23.2019 
 267   0.0000       0.853064        23.2130 
 268   0.0000       0.856984        23.3197 
 269   0.0000       0.857217        23.3261 
 270   0.0000       0.896071        24.3833 
 271   0.0000       0.898438        24.4477 
 272   0.0000       0.906573        24.6691 
 273   0.0000       0.907678        24.6992 
 274   0.0000       0.915932        24.9238 
 275   0.0000       0.923012        25.1164 
 276   0.0000       0.924678        25.1618 
 277   0.0000       0.942309        25.6415 
 278   0.0000       0.950834        25.8735 
 279   0.0000       0.951854        25.9013 
 280   0.0000       0.956237        26.0205 
 281   0.0000       0.957454        26.0536 
 282   0.0000       0.959182        26.1007 
 283   0.0000       0.961628        26.1672 
 284   0.0000       0.964402        26.2427 
 285   0.0000       0.965645        26.2765 
 286   0.0000       0.984316        26.7846 
 287   0.0000       1.007661        27.4198 
 288   0.0000       1.010586        27.4994 
 289   0.0000       1.011512        27.5246 
 290   0.0000       1.016013        27.6471 
 291   0.0000       1.017223        27.6800 
 292   0.0000       1.018009        27.7014 
 293   0.0000       1.030058        28.0293 
 294   0.0000       1.030362        28.0376 
 295   0.0000       1.039816        28.2948 
 296   0.0000       1.040336        28.3090 
 297   0.0000       1.041408        28.3382 
 298   0.0000       1.046283        28.4708 
 299   0.0000       1.046745        28.4834 
 300   0.0000       1.054521        28.6950 
 301   0.0000       1.060146        28.8480 
 302   0.0000       1.060625        28.8611 
 303   0.0000       1.061276        28.8788 
 304   0.0000       1.066926        29.0325 
 305   0.0000       1.067177        29.0394 
 306   0.0000       1.070487        29.1294 
 307   0.0000       1.088327        29.6149 
 308   0.0000       1.095061        29.7981 
 309   0.0000       1.096454        29.8360 
 310   0.0000       1.125052        30.6142 
 311   0.0000       1.131168        30.7807 
 312   0.0000       1.131481        30.7892 
 313   0.0000       1.132470        30.8161 
 314   0.0000       1.135518        30.8990 
 315   0.0000       1.135788        30.9064 
 316   0.0000       1.140169        31.0256 
 317   0.0000       1.140998        31.0481 
 318   0.0000       1.142033        31.0763 
 319   0.0000       1.146238        31.1907 
 320   0.0000       1.147295        31.2195 
 321   0.0000       1.148602        31.2551 
 322   0.0000       1.148722        31.2583 
 323   0.0000       1.153475        31.3877 
 324   0.0000       1.153903        31.3993 
 325   0.0000       1.154740        31.4221 
 326   0.0000       1.154857        31.4253 
 327   0.0000       1.160665        31.5833 
 328   0.0000       1.161309        31.6008 
 329   0.0000       1.170309        31.8457 
 330   0.0000       1.204119        32.7657 
 331   0.0000       1.205019        32.7902 
 332   0.0000       1.205569        32.8052 
 333   0.0000       1.206171        32.8216 
 334   0.0000       1.208871        32.8950 
 335   0.0000       1.209268        32.9059 
 336   0.0000       1.214479        33.0477 
 337   0.0000       1.214927        33.0598 
 338   0.0000       1.215548        33.0767 
 339   0.0000       1.216370        33.0991 
 340   0.0000       1.233110        33.5546 
 341   0.0000       1.234051        33.5802 
 342   0.0000       1.249616        34.0038 
 343   0.0000       1.270456        34.5709 
 344   0.0000       1.279512        34.8173 
 345   0.0000       1.279712        34.8227 
 346   0.0000       1.282279        34.8926 
 347   0.0000       1.290219        35.1087 
 348   0.0000       1.293546        35.1992 
 349   0.0000       1.295504        35.2524 
 350   0.0000       1.306837        35.5608 
 351   0.0000       1.308586        35.6084 
 352   0.0000       1.313618        35.7454 
 353   0.0000       1.327686        36.1282 
 354   0.0000       1.330284        36.1989 
 355   0.0000       1.331554        36.2334 
 356   0.0000       1.368510        37.2391 
 357   0.0000       1.368742        37.2454 
 358   0.0000       1.381927        37.6041 
 359   0.0000       1.384835        37.6833 
 360   0.0000       1.385340        37.6970 
 361   0.0000       1.402683        38.1689 
 362   0.0000       1.404261        38.2119 
 363   0.0000       1.404949        38.2306 
 364   0.0000       1.411797        38.4170 
 365   0.0000       1.428799        38.8796 
 366   0.0000       1.429495        38.8985 
 367   0.0000       1.438147        39.1340 
 368   0.0000       1.440382        39.1948 
 369   0.0000       1.441083        39.2139 
 370   0.0000       1.454911        39.5901 
 371   0.0000       1.455570        39.6081 
 372   0.0000       1.464091        39.8399 
 373   0.0000       1.485149        40.4129 
 374   0.0000       1.486693        40.4550 
 375   0.0000       1.487625        40.4803 
 376   0.0000       1.496788        40.7297 
 377   0.0000       1.497413        40.7467 
 378   0.0000       1.498175        40.7674 
 379   0.0000       1.505353        40.9627 
 380   0.0000       1.507387        41.0181 
 381   0.0000       1.507760        41.0282 
 382   0.0000       1.511560        41.1316 
 383   0.0000       1.518431        41.3186 
 384   0.0000       1.518906        41.3315 
 385   0.0000       1.530642        41.6509 
 386   0.0000       1.533000        41.7151 
 387   0.0000       1.533326        41.7239 
 388   0.0000       1.539403        41.8893 
 389   0.0000       1.540192        41.9108 
 390   0.0000       1.540677        41.9240 
 391   0.0000       1.553876        42.2831 
 392   0.0000       1.565236        42.5922 
 393   0.0000       1.565650        42.6035 
 394   0.0000       1.566137        42.6168 
 395   0.0000       1.571429        42.7607 
 396   0.0000       1.571959        42.7752 
 397   0.0000       1.583286        43.0834 
 398   0.0000       1.598553        43.4988 
 399   0.0000       1.598844        43.5068 
 400   0.0000       1.611922        43.8626 
 401   0.0000       1.615250        43.9532 
 402   0.0000       1.616508        43.9874 
 403   0.0000       1.621121        44.1129 
 404   0.0000       1.641856        44.6772 
 405   0.0000       1.645388        44.7733 
 406   0.0000       1.650804        44.9207 
 407   0.0000       1.651637        44.9433 
 408   0.0000       1.662591        45.2414 
 409   0.0000       1.662751        45.2457 
 410   0.0000       1.668216        45.3945 
 411   0.0000       1.668927        45.4138 
 412   0.0000       1.685982        45.8779 
 413   0.0000       1.686598        45.8947 
 414   0.0000       1.687984        45.9324 
 415   0.0000       1.688053        45.9343 
 416   0.0000       1.688455        45.9452 
 417   0.0000       1.707991        46.4768 
 418   0.0000       1.731543        47.1177 
 419   0.0000       1.731804        47.1248 
 420   0.0000       1.735918        47.2367 
 421   0.0000       1.744492        47.4700 
 422   0.0000       1.745077        47.4860 
 423   0.0000       1.749875        47.6165 
 424   0.0000       1.752278        47.6819 
 425   0.0000       1.753335        47.7107 
 426   0.0000       1.763189        47.9788 
 427   0.0000       1.763638        47.9910 
 428   0.0000       1.781224        48.4696 
 429   0.0000       1.801026        49.0084 
 430   0.0000       1.801643        49.0252 
 431   0.0000       1.806737        49.1638 
 432   0.0000       1.807131        49.1745 
 433   0.0000       1.812150        49.3111 
 434   0.0000       1.812632        49.3242 
 435   0.0000       1.819400        49.5084 
 436   0.0000       1.819517        49.5116 
 437   0.0000       1.825151        49.6649 
 438   0.0000       1.832350        49.8608 
 439   0.0000       1.832518        49.8654 
 440   0.0000       1.835643        49.9504 
 441   0.0000       1.840521        50.0831 
 442   0.0000       1.841066        50.0980 
 443   0.0000       1.851116        50.3714 
 444   0.0000       1.855683        50.4957 
 445   0.0000       1.856094        50.5069 
 446   0.0000       1.857388        50.5421 
 447   0.0000       1.858096        50.5614 
 448   0.0000       1.858634        50.5760 
 449   0.0000       1.870023        50.8859 
 450   0.0000       1.905726        51.8574 
 451   0.0000       1.905926        51.8629 
 452   0.0000       1.906956        51.8909 
 453   0.0000       1.926025        52.4098 
 454   0.0000       1.930569        52.5335 
 455   0.0000       1.933183        52.6046 
 456   0.0000       1.939564        52.7782 
 457   0.0000       1.939822        52.7852 
 458   0.0000       1.943753        52.8922 
 459   0.0000       1.944240        52.9055 
 460   0.0000       1.950639        53.0796 
 461   0.0000       1.951007        53.0896 
 462   0.0000       1.967127        53.5283 
 463   0.0000       1.969192        53.5844 
 464   0.0000       1.971183        53.6386 
 465   0.0000       1.971352        53.6432 
 466   0.0000       1.993263        54.2394 
 467   0.0000       1.997193        54.3464 
 468   0.0000       1.997580        54.3569 
 469   0.0000       2.006991        54.6130 
 470   0.0000       2.007309        54.6216 
 471   0.0000       2.015230        54.8372 
 472   0.0000       2.016967        54.8845 
 473   0.0000       2.017298        54.8935 
 474   0.0000       2.024126        55.0793 
 475   0.0000       2.032946        55.3193 
 476   0.0000       2.033048        55.3221 
 477   0.0000       2.039822        55.5064 
 478   0.0000       2.039905        55.5087 
 479   0.0000       2.043219        55.5988 
 480   0.0000       2.052621        55.8546 
 481   0.0000       2.053052        55.8664 
 482   0.0000       2.069157        56.3046 
 483   0.0000       2.081855        56.6502 
 484   0.0000       2.084679        56.7270 
 485   0.0000       2.086917        56.7879 
 486   0.0000       2.087202        56.7957 
 487   0.0000       2.105498        57.2935 
 488   0.0000       2.105730        57.2998 
 489   0.0000       2.110406        57.4271 
 490   0.0000       2.118510        57.6476 
 491   0.0000       2.119000        57.6609 
 492   0.0000       2.124729        57.8168 
 493   0.0000       2.126051        57.8528 
 494   0.0000       2.126524        57.8657 
 495   0.0000       2.151115        58.5348 
 496   0.0000       2.162866        58.8546 
 497   0.0000       2.179076        59.2957 
 498   0.0000       2.179540        59.3083 
 499   0.0000       2.193307        59.6829 
 500   0.0000       2.209587        60.1259 
 501   0.0000       2.213430        60.2305 
 502   0.0000       2.213618        60.2356 
 503   0.0000       2.224204        60.5237 
 504   0.0000       2.224784        60.5395 
 505   0.0000       2.225250        60.5521 
 506   0.0000       2.229397        60.6650 
 507   0.0000       2.229655        60.6720 
 508   0.0000       2.250526        61.2399 
 509   0.0000       2.250583        61.2415 
 510   0.0000       2.274404        61.8897 
 511   0.0000       2.275111        61.9089 
 512   0.0000       2.290853        62.3373 
 513   0.0000       2.296157        62.4816 
 514   0.0000       2.307721        62.7963 
 515   0.0000       2.307920        62.8017 
 516   0.0000       2.314117        62.9703 
 517   0.0000       2.326288        63.3015 
 518   0.0000       2.347942        63.8908 
 519   0.0000       2.348087        63.8947 
 520   0.0000       2.358920        64.1895 
 521   0.0000       2.359537        64.2063 
 522   0.0000       2.359652        64.2094 
 523   0.0000       2.395123        65.1746 
 524   0.0000       2.395704        65.1904 
 525   0.0000       2.417665        65.7880 
 526   0.0000       2.423792        65.9547 
 527   0.0000       2.424006        65.9606 
 528   0.0000       2.426407        66.0259 
 529   0.0000       2.435637        66.2770 
 530   0.0000       2.435774        66.2808 
 531   0.0000       2.446269        66.5664 
 532   0.0000       2.456559        66.8464 
 533   0.0000       2.456974        66.8577 
 534   0.0000       2.468091        67.1602 
 535   0.0000       2.468275        67.1652 
 536   0.0000       2.474031        67.3218 
 537   0.0000       2.479426        67.4686 
 538   0.0000       2.511459        68.3403 
 539   0.0000       2.511602        68.3442 
 540   0.0000       2.522324        68.6359 
 541   0.0000       2.550449        69.4013 
 542   0.0000       2.564788        69.7914 
 543   0.0000       2.565124        69.8006 
 544   0.0000       2.584127        70.3177 
 545   0.0000       2.588165        70.4275 
 546   0.0000       2.599746        70.7427 
 547   0.0000       2.600440        70.7616 
 548   0.0000       2.616875        71.2088 
 549   0.0000       2.617076        71.2143 
 550   0.0000       2.632873        71.6441 
 551   0.0000       2.633181        71.6525 
 552   0.0000       2.633345        71.6569 
 553   0.0000       2.671398        72.6924 
 554   0.0000       2.682613        72.9976 
 555   0.0000       2.694425        73.3190 
 556   0.0000       2.695329        73.3436 
 557   0.0000       2.739690        74.5508 
 558   0.0000       2.745216        74.7011 
 559   0.0000       2.747782        74.7709 
[...]
 521( 0) :     2.359537 a.u.    64.206 eV
 522( 0) :     2.359654 a.u.    64.209 eV
 523( 0) :     2.395122 a.u.    65.175 eV
 524( 0) :     2.395707 a.u.    65.191 eV
 525( 0) :     2.417668 a.u.    65.788 eV
 526( 0) :     2.423795 a.u.    65.955 eV
 527( 0) :     2.424008 a.u.    65.961 eV
 528( 0) :     2.426412 a.u.    66.026 eV
 529( 0) :     2.435638 a.u.    66.277 eV
 530( 0) :     2.435775 a.u.    66.281 eV
 531( 0) :     2.446270 a.u.    66.566 eV
 532( 0) :     2.456562 a.u.    66.846 eV
 533( 0) :     2.456977 a.u.    66.858 eV
 534( 0) :     2.468093 a.u.    67.160 eV
 535( 0) :     2.468278 a.u.    67.165 eV
 536( 0) :     2.474035 a.u.    67.322 eV
 537( 0) :     2.479424 a.u.    67.469 eV
 538( 0) :     2.511460 a.u.    68.340 eV
 539( 0) :     2.511604 a.u.    68.344 eV
 540( 0) :     2.522323 a.u.    68.636 eV
 541( 0) :     2.550452 a.u.    69.401 eV
 542( 0) :     2.564787 a.u.    69.791 eV
 543( 0) :     2.565122 a.u.    69.801 eV
 544( 0) :     2.584132 a.u.    70.318 eV
 545( 0) :     2.588157 a.u.    70.427 eV
 546( 0) :     2.599747 a.u.    70.743 eV
 547( 0) :     2.600438 a.u.    70.762 eV
 548( 0) :     2.616874 a.u.    71.209 eV
 549( 0) :     2.617074 a.u.    71.214 eV
 550( 0) :     2.632874 a.u.    71.644 eV
 551( 0) :     2.633181 a.u.    71.652 eV
 552( 0) :     2.633344 a.u.    71.657 eV
 553( 0) :     2.671398 a.u.    72.692 eV
 554( 0) :     2.682614 a.u.    72.998 eV
 555( 0) :     2.694425 a.u.    73.319 eV
 556( 0) :     2.695328 a.u.    73.344 eV
 557( 0) :     2.739695 a.u.    74.551 eV
 558( 0) :     2.745218 a.u.    74.701 eV
 559( 0) :     2.747784 a.u.    74.771 eV
 560( 0) :     2.747851 a.u.    74.773 eV
 561( 0) :     2.757780 a.u.    75.043 eV
 562( 0) :     2.757969 a.u.    75.048 eV
 563( 0) :     2.768102 a.u.    75.324 eV
 564( 0) :     2.768645 a.u.    75.339 eV
 565( 0) :     2.777247 a.u.    75.573 eV
 566( 0) :     2.785428 a.u.    75.795 eV
 567( 0) :     2.785609 a.u.    75.800 eV
 568( 0) :     2.791146 a.u.    75.951 eV
 569( 0) :     2.795725 a.u.    76.076 eV
 570( 0) :     2.796459 a.u.    76.096 eV
 571( 0) :     2.798722 a.u.    76.157 eV
 572( 0) :     2.818366 a.u.    76.692 eV
 573( 0) :     2.819913 a.u.    76.734 eV
 574( 0) :     2.856508 a.u.    77.730 eV
 575( 0) :     2.859234 a.u.    77.804 eV
 576( 0) :     2.860489 a.u.    77.838 eV
 577( 0) :     2.875465 a.u.    78.245 eV
 578( 0) :     2.875818 a.u.    78.255 eV
 579( 0) :     2.910229 a.u.    79.191 eV
 580( 0) :     2.911306 a.u.    79.221 eV
 581( 0) :     2.922509 a.u.    79.526 eV
 582( 0) :     2.923074 a.u.    79.541 eV
 583( 0) :     2.925671 a.u.    79.612 eV
 584( 0) :     2.933942 a.u.    79.837 eV
 585( 0) :     2.962614 a.u.    80.617 eV
 586( 0) :     2.964199 a.u.    80.660 eV
 587( 0) :     2.975103 a.u.    80.957 eV
 588( 0) :     2.986024 a.u.    81.254 eV
 589( 0) :     2.986888 a.u.    81.277 eV
 590( 0) :     3.062697 a.u.    83.340 eV
 591( 0) :     3.063744 a.u.    83.369 eV
 592( 0) :     3.067136 a.u.    83.461 eV
 593( 0) :     3.140672 a.u.    85.462 eV
 594( 0) :     3.800258 a.u.   103.410 eV
 595( 0) :     3.805200 a.u.   103.545 eV
 596( 0) :     3.836286 a.u.   104.391 eV
 597( 0) :     3.850112 a.u.   104.767 eV
 598( 0) :     3.886245 a.u.   105.750 eV
 599( 0) :     3.887749 a.u.   105.791 eV
 600( 0) :     5.167507 a.u.   140.615 eV
 601( 0) :     5.167665 a.u.   140.619 eV
 602( 0) :     5.176470 a.u.   140.859 eV
 603( 0) :     5.181859 a.u.   141.006 eV
 604( 0) :     5.182325 a.u.   141.018 eV
 605( 0) :     5.184885 a.u.   141.088 eV
 606( 0) :     5.280472 a.u.   143.689 eV
 607( 0) :     5.280642 a.u.   143.694 eV
 608( 0) :     5.285627 a.u.   143.829 eV
 609( 0) :     5.287488 a.u.   143.880 eV
 610( 0) :     5.287578 a.u.   143.882 eV
 611( 0) :     5.289548 a.u.   143.936 eV
 612( 0) :     5.298136 a.u.   144.170 eV
 613( 0) :     5.298418 a.u.   144.177 eV
 614( 0) :     5.300838 a.u.   144.243 eV
 615( 0) :     5.318709 a.u.   144.729 eV
 616( 0) :     5.319215 a.u.   144.743 eV
 617( 0) :     5.338271 a.u.   145.262 eV
 618( 0) :     5.371266 a.u.   146.160 eV
 619( 0) :     5.371842 a.u.   146.175 eV
 620( 0) :     5.383341 a.u.   146.488 eV
 621( 0) :     5.398948 a.u.   146.913 eV
 622( 0) :     5.399814 a.u.   146.936 eV
 623( 0) :     5.403008 a.u.   147.023 eV
 624( 0) :     5.417051 a.u.   147.405 eV
 625( 0) :     5.455585 a.u.   148.454 eV
 626( 0) :     5.456197 a.u.   148.471 eV
 627( 0) :     5.456451 a.u.   148.478 eV
 628( 0) :     5.486216 a.u.   149.288 eV
 629( 0) :     5.487592 a.u.   149.325 eV
 630( 0) :     5.487704 a.u.   149.328 eV
 631( 0) :     5.506854 a.u.   149.849 eV
 632( 0) :     5.520327 a.u.   150.216 eV
 633( 0) :     5.521095 a.u.   150.237 eV
 634( 0) :     5.546076 a.u.   150.916 eV
 635( 0) :     5.546160 a.u.   150.919 eV
 636( 0) :     5.557299 a.u.   151.222 eV
 637( 0) :     5.585677 a.u.   151.994 eV
 638( 0) :     5.587750 a.u.   152.050 eV
 639( 0) :     5.588556 a.u.   152.072 eV
 640( 0) :     5.647071 a.u.   153.665 eV
 641( 0) :     5.648608 a.u.   153.706 eV
 642( 0) :     5.669280 a.u.   154.269 eV
 643( 0) :     5.729491 a.u.   155.907 eV
 644( 0) :     5.730429 a.u.   155.933 eV
 645( 0) :     5.745967 a.u.   156.356 eV
 646( 0) :     5.753086 a.u.   156.549 eV
 647( 0) :     5.758650 a.u.   156.701 eV
 648( 0) :     5.759197 a.u.   156.716 eV
 649( 0) :     5.839160 a.u.   158.892 eV
 650( 0) :     5.839607 a.u.   158.904 eV
 651( 0) :     5.894790 a.u.   160.405 eV
 652( 0) :     5.990258 a.u.   163.003 eV
 653( 0) :     5.990350 a.u.   163.006 eV
 654( 0) :     6.074605 a.u.   165.298 eV
 655( 0) :     6.075542 a.u.   165.324 eV
 656( 0) :     6.085689 a.u.   165.600 eV
 657( 0) :     6.096863 a.u.   165.904 eV
 658( 0) :     6.106695 a.u.   166.172 eV
 659( 0) :     6.107378 a.u.   166.190 eV
 660( 0) :     6.114648 a.u.   166.388 eV
 661( 0) :     6.115840 a.u.   166.420 eV
 662( 0) :     6.122087 a.u.   166.590 eV
 663( 0) :     7.460326 a.u.   203.006 eV
 664( 0) :    29.649828 a.u.   806.813 eV
 665( 0) :    29.717597 a.u.   808.657 eV
 666( 0) :    29.717802 a.u.   808.663 eV
 667( 0) :    29.782743 a.u.   810.430 eV
 668( 0) :    29.793131 a.u.   810.712 eV
 669( 0) :    29.793382 a.u.   810.719 eV
 670( 0) :    29.832272 a.u.   811.777 eV
 671( 0) :    30.009822 a.u.   816.609 eV
 672( 0) :    30.010394 a.u.   816.624 eV
 673( 0) :    30.019076 a.u.   816.861 eV
 674( 0) :    30.035421 a.u.   817.305 eV
 675( 0) :    30.041198 a.u.   817.463 eV
 676( 0) :    30.041290 a.u.   817.465 eV
 677( 0) :    30.108444 a.u.   819.292 eV
 678( 0) :    30.108651 a.u.   819.298 eV
 679( 0) :    30.148923 a.u.   820.394 eV
 680( 0) :    30.240177 a.u.   822.877 eV
 681( 0) :    30.240252 a.u.   822.879 eV
 682( 0) :    30.295757 a.u.   824.389 eV
 683( 0) :    30.295920 a.u.   824.394 eV
 684( 0) :    30.319148 a.u.   825.026 eV
 685( 0) :    30.321299 a.u.   825.084 eV
 686( 0) :    30.329141 a.u.   825.298 eV
 687( 0) :    30.329482 a.u.   825.307 eV
 688( 0) :    30.333794 a.u.   825.425 eV
 689( 0) :    30.338608 a.u.   825.555 eV
 690( 0) :    30.338996 a.u.   825.566 eV
 691( 0) :    36.673813 a.u.   997.945 eV
 692( 0) :    36.681848 a.u.   998.164 eV
 693( 0) :    36.682114 a.u.   998.171 eV
 694( 0) :    36.764029 a.u.  1000.400 eV
 695( 0) :    36.766055 a.u.  1000.455 eV
 696( 0) :    36.774571 a.u.  1000.687 eV
 697( 0) :    36.863063 a.u.  1003.095 eV
 698( 0) :    36.878825 a.u.  1003.524 eV
 699( 0) :    36.878960 a.u.  1003.528 eV
 700( 0) :    36.893355 a.u.  1003.919 eV
 701( 0) :    36.893371 a.u.  1003.920 eV
 702( 0) :    36.893421 a.u.  1003.921 eV
 703( 0) :    36.894516 a.u.  1003.951 eV
 704( 0) :    36.905573 a.u.  1004.252 eV
 705( 0) :    36.905821 a.u.  1004.258 eV
 706( 0) :    36.908994 a.u.  1004.345 eV
 707( 0) :    36.909216 a.u.  1004.351 eV
 708( 0) :    36.939108 a.u.  1005.164 eV
 709( 0) :    36.962186 a.u.  1005.792 eV
 710( 0) :    36.962234 a.u.  1005.794 eV
 711( 0) :    36.978826 a.u.  1006.245 eV
 712( 0) :    36.987454 a.u.  1006.480 eV
 713( 0) :    37.012368 a.u.  1007.158 eV
 714( 0) :    37.012883 a.u.  1007.172 eV
 715( 0) :    37.015759 a.u.  1007.250 eV
 716( 0) :    37.026689 a.u.  1007.547 eV
 717( 0) :    37.032243 a.u.  1007.699 eV
 718( 0) :    37.105321 a.u.  1009.687 eV
 719( 0) :    37.105786 a.u.  1009.700 eV
 720( 0) :    37.111693 a.u.  1009.861 eV
 721( 0) :    37.245850 a.u.  1013.511 eV
 722( 0) :    37.253880 a.u.  1013.730 eV
 723( 0) :    37.269571 a.u.  1014.157 eV
 724( 0) :    37.358811 a.u.  1016.585 eV
 725( 0) :    37.371234 a.u.  1016.923 eV
 726( 0) :    37.371885 a.u.  1016.941 eV
 727( 0) :    41.163183 a.u.  1120.107 eV
-------
TIMINGS
-------

Total SCF time: 0 days 0 hours 1 min 9 sec 

Total time                  ....      69.154 sec
Sum of individual times     ....      65.586 sec  ( 94.8%)

Fock matrix formation       ....      42.788 sec  ( 61.9%)
  Split-RI-J                ....      25.183 sec  ( 58.9% of F)
  XC integration            ....      10.402 sec  ( 24.3% of F)
    Basis function eval.    ....       0.391 sec  (  3.8% of XC)
    Density eval.           ....       1.033 sec  (  9.9% of XC)
    XC-Functional eval.     ....       0.063 sec  (  0.6% of XC)
    XC-Potential eval.      ....       1.332 sec  ( 12.8% of XC)
Diagonalization             ....       8.373 sec  ( 12.1%)
Density matrix formation    ....       0.578 sec  (  0.8%)
Population analysis         ....       4.299 sec  (  6.2%)
Initial guess               ....       0.781 sec  (  1.1%)
Orbital Transformation      ....       0.000 sec  (  0.0%)
Orbital Orthonormalization  ....       0.000 sec  (  0.0%)
DIIS solution               ....       5.893 sec  (  8.5%)
Grid generation             ....       2.875 sec  (  4.2%)

-------------------------   --------------------
FINAL SINGLE POINT ENERGY     -1103.167986831646
-------------------------   --------------------

   --->>> SOC part of D-tensor requested, so NeedSOC=true

                            ***************************************
                            *     ORCA property calculations      *
                            ***************************************

                                    ---------------------
                                    Active property flags
                                    ---------------------
   (+) Dipole Moment
   (+) D-tensor
   (+) Spin-Orbit Integrals are needed


------------------------------------------------------------------------------
                       ORCA ELECTRIC PROPERTIES CALCULATION
------------------------------------------------------------------------------

Dipole Moment Calculation                       ... on
Quadrupole Moment Calculation                   ... off
Polarizability Calculation                      ... off
GBWName                                         ... zfs.gbw
Electron density file                           ... zfs.scfp
The origin for moment calculation is the CENTER OF MASS  = ( 0.000039,  0.000039 -3.167486)

-------------
DIPOLE MOMENT
-------------
                                X             Y             Z
Electronic contribution:      0.00658      -0.00139       1.06735
Nuclear contribution   :     -0.00294      -0.00242      -0.32886
                        -----------------------------------------
Total Dipole Moment    :      0.00364      -0.00382       0.73849
                        -----------------------------------------
Magnitude (a.u.)       :      0.73851
Magnitude (Debye)      :      1.87714



--------------------
Rotational spectrum 
--------------------
 
Rotational constants in cm-1:     0.009246     0.009141     0.009141 
Rotational constants in MHz :   277.183097   274.048600   274.045280 

 Dipole components along the rotational axes: 
x,y,z [a.u.] :     0.738490     0.000606    -0.005280 
x,y,z [Debye]:     1.877093     0.001541    -0.013419 

 


           ************************************************************
           *        Program running with 72 parallel MPI-processes    *
           *              working on a shared directory               *
           ************************************************************
------------------------------------------------------------------------------
                         ORCA SPIN-ORBIT COUPLING CALCULATION
------------------------------------------------------------------------------

GBW file                                    ... zfs.gbw
Input density                               ... zfs.scfp
Output integrals                            ... zfs
Operator type                               ... Mean-field/Effective potential
   One-Electron Terms                       ... 1
   Coulomb Contribution                     ... 2
   Exchange Contribution                    ... 3
   Correlation Contribution                 ... 0
   Maximum number of centers                ... 4
Setting up the integration grid             ... done
Evaluating density on the grid              ... (NumEl=  206.001844) done
Evaluating Coulomb term semi-analytically   ... done
One-Center Exchange (+SOO)                  ... done
Evaluating the spin-orbit operator          ... done
Total time for SOC: 64.989


           ************************************************************
           *        Program running with 72 parallel MPI-processes    *
           *              working on a shared directory               *
           ************************************************************
------------------------------------------------------------------------------
                                ORCA EPR/NMR CALCULATION
------------------------------------------------------------------------------

GBWName                      ... zfs.gbw
Electron density file        ... zfs.scfp
Spin density file            ... zfs.scfr
Spin-orbit integrals         ... zfs
Multiplicity                 ... 3
g-tensor                     ... 0
NMR chemical shifts          ... 0
D-tensor                     ... spin-spin and spin-orbit
D(SS)-algorithm              ... spin-density from UNOs
D(SOC)-algorithm             ... CP (=Coupled-perturbed)
Active orbitals for UNO spin density= 102 .. 103

Starting the spin-spin zero-field-splitting computation (UNO)...
                        ... done with spin-spin calculation

Starting the spin-orbit zero-field-splitting computation (CP)...
Transforming integrals                       ... Max(Pert)=   5.6113e-06
Warning: Perturbation too small - adjusting
Transforming integrals                       ... Max(Pert)=   6.1107e-05
Warning: Perturbation too small - adjusting
Transforming integrals                       ... Max(Pert)=   6.6546e-04
Warning: Perturbation too small - adjusting
Transforming integrals                       ... Max(Pert)=   7.2468e-03
done
    ... no HF exchange - skipping linear equations
ZFS-Tensor - using the prefactors
   -1/(4S**2) for same spin
    1/(2*S*(2*S-1)) for alpha->beta
    1/((S+1)*(2*S+1)) for beta->alpha
                        ... done with spin-orbit calculation

---------------------------
ZERO-FIELD-SPLITTING TENSOR
---------------------------

raw-matrix : 
   0.019927     0.000294    -0.000017  
   0.000294     0.019969    -0.000012  
  -0.000017    -0.000012     0.087121  

Tensor is right-handed
diagonalized D matrix : 
   0.019653     0.020243     0.087121  

   0.732001     0.681303    -0.000259  
  -0.681303     0.732001    -0.000175  
   0.000070     0.000305     1.000000  


Direction X=1 Y=0 Z=2
D   =     0.067173  cm**-1
E/D =     0.004391

SPIN-SPIN-PART
                   0          1          2    
      0      -0.021905   0.000290   0.000001
      1       0.000290  -0.021869  -0.000002
      2       0.000001  -0.000002   0.043773
Exchange and Coulomb parts of SS (raw)
Coulomb
                   0          1          2    
      0      -0.019505  -0.003211  -0.000002
      1      -0.003211  -0.012640  -0.000048
      2      -0.000002  -0.000048   0.032146
Exchange
                   0          1          2    
      0      -0.002399   0.003501   0.000003
      1       0.003501  -0.009228   0.000047
      2       0.000003   0.000047   0.011628
One-, two-, three- and four-center SS contributions (raw)
One-Center            (AA|AA):
                   0          1          2    
      0      -0.001588  -0.000202  -0.000035
      1      -0.000202  -0.001462  -0.000066
      2      -0.000035  -0.000066   0.003049
Two-Center-Coulomb    (AA|BB):
                   0          1          2    
      0      -0.327962  -0.048793  -0.000276
      1      -0.048793  -0.374918   0.000111
      2      -0.000276   0.000111   0.702880
Two-Center-Exchange   (AB|BA):
                   0          1          2    
      0      -0.015080   0.000912   0.000550
      1       0.000912  -0.014459   0.000073
      2       0.000550   0.000073   0.029539
Two-Center-hybrid     (AA|AB):
                   0          1          2    
      0       0.001265   0.000846   0.000144
      1       0.000846   0.001694   0.000536
      2       0.000144   0.000536  -0.002959
Three-Center-Coulomb  (AA|BC):
                   0          1          2    
      0       0.560198   0.085606   0.004977
      1       0.085606   0.646220   0.002644
      2       0.004977   0.002644  -1.206419
Three-Center-Exchange (AB|AC):
                   0          1          2    
      0      -0.003130   0.000601  -0.002112
      1       0.000601  -0.004728  -0.001498
      2      -0.002112  -0.001498   0.007857
Four-Center           (AB|CD):
                   0          1          2    
      0      -0.235609  -0.038681  -0.003249
      1      -0.038681  -0.274217  -0.001802
      2      -0.003249  -0.001802   0.509826
ALPHA-PART
                   0          1          2    
      0      -0.113506   0.000007   0.000006
      1       0.000007  -0.113509   0.000000
      2       0.000006   0.000000  -0.108828
BETA-PART
                   0          1          2    
      0      -0.111415   0.000016   0.000006
      1       0.000016  -0.111413  -0.000005
      2       0.000006  -0.000005  -0.104860
ALPHA->BETA-PART
                   0          1          2    
      0       0.230139  -0.000014  -0.000030
      1      -0.000014   0.230148  -0.000008
      2      -0.000030  -0.000008   0.222823
BETA->ALPHA-PART
                   0          1          2    
      0       0.036613  -0.000006  -0.000000
      1      -0.000006   0.036612   0.000002
      2      -0.000000   0.000002   0.034212

Individual contributions (in cm**-1)
                                   D         E
SPIN-SPIN                  :   0.06566    0.00029
  Exchange vs Coulomb
  Coulomb                  :   0.04822   -0.00296
  Exchange                 :   0.01744    0.00325
  One through four center contributions:
  1-center                 :   0.00457   -0.00020
  2-center-Coulomb         :   1.05432   -0.05035
  2-center-Exchange        :   0.04431    0.00093
  2-center-Hybrid          :  -0.00444    0.00086
  3-center-Coulomb         :  -1.80963    0.08847
  3-center-Exchange        :   0.01179    0.00054
  4-center                 :   0.76474   -0.03997
SPIN-ORBIT                 :   0.00151    0.00000
SOMO->VMO  (alpha->alpha)  :   0.00468    0.00001
DOMO->SOMO (beta ->beta )  :   0.00655    0.00002
SOMO->SOMO (alpha->beta )  :  -0.00732   -0.00001
DOMO->VMO  (beta ->alpha)  :  -0.00240   -0.00001


Timings for individual modules:

Sum of individual times         ...      262.616 sec (=   4.377 min)
GTO integral calculation        ...       10.233 sec (=   0.171 min)   3.9 %
Spin-Orbit-Coupling Matrices    ...       64.976 sec (=   1.083 min)  24.7 %
SCF iterations                  ...       76.820 sec (=   1.280 min)  29.3 %
EPR/NMR calculation             ...      110.586 sec (=   1.843 min)  42.1 %
                             ****ORCA TERMINATED NORMALLY****
TOTAL RUN TIME: 0 days 0 hours 4 minutes 39 seconds 864 msec
