
*************** JDFTx 1.3.1 (git hash 3c15ac7) ***************

Start date and time: Wed Jan 31 00:32:47 2018
Executable /data/share/wufeng/share/programs/JDFTX-201712-share/build//jdftx with command-line: -i main.in
Running on hosts (process indices):  krnode22.krhpc (0-6)  krnode23.krhpc (7-13)
Divided in process groups (process indices):  0 (0)  1 (1)  2 (2)  3 (3)  4 (4)  5 (5)  6 (6)  7 (7)  8 (8)  9 (9)  10 (10)  11 (11)  12 (12)  13 (13)
Resource initialization completed at t[s]:      0.15
Run totals: 14 processes, 32 threads, 0 GPUs


Input parsed successfully to the following command list (including defaults):

add-U 	Cu1 d 0.27562 \
	Cu2 d 0.27562
basis kpoint-dependent
charged-defect 0.499934 0.417295 0.500419  +1 1
charged-defect-correction /export/data/share/tjsmart/Tenorite/LSDA+U/Scell/Li/JDFTx/Prist/cuo.d_tot 18 8 1
coords-type Lattice
core-overlap-check vector
coulomb-interaction Periodic
davidson-band-ratio 1.1
dump End State Dtot EigStats Ecomponents ChargedDefect
dump Electronic State
dump 
dump-interval Electronic 10
dump-name cuo.$VAR
elec-cutoff 25 150
elec-eigen-algo Davidson
elec-ex-corr gga-PBE
elec-initial-charge 1.000000
elec-initial-magnetization -1.000000 yes
elec-n-bands 860
elec-smearing Cold 0.0005
electronic-minimize  \
	dirUpdateScheme      FletcherReeves \
	linminMethod         DirUpdateRecommended \
	nIterations          100 \
	history              15 \
	knormThreshold       0 \
	energyDiffThreshold  1e-08 \
	nEnergyDiff          2 \
	alphaTstart          1 \
	alphaTmin            1e-10 \
	updateTestStepSize   yes \
	alphaTreduceFactor   0.1 \
	alphaTincreaseFactor 3 \
	nAlphaAdjustMax      3 \
	wolfeEnergy          0.0001 \
	wolfeGradient        0.9 \
	fdTest               no
electronic-scf  \
	nIterations	50 \
	energyDiffThreshold	1e-07 \
	residualThreshold	1e-07 \
	mixFraction	0.5 \
	qMetric	0.8 \
	history	10 \
	nEigSteps	2 \
	eigDiffThreshold	1e-08 \
	mixedVariable	Density \
	qKerker	0.8 \
	qKappa	-1 \
	verbose	no \
	mixFractionMag	1.5
exchange-regularization WignerSeitzTruncated
fluid None
fluid-ex-corr lda-TF lda-PZ
fluid-gummel-loop 10 1.000000e-05
fluid-minimize  \
	dirUpdateScheme      PolakRibiere \
	linminMethod         DirUpdateRecommended \
	nIterations          100 \
	history              15 \
	knormThreshold       0 \
	energyDiffThreshold  0 \
	nEnergyDiff          2 \
	alphaTstart          1 \
	alphaTmin            1e-10 \
	updateTestStepSize   yes \
	alphaTreduceFactor   0.1 \
	alphaTincreaseFactor 3 \
	nAlphaAdjustMax      3 \
	wolfeEnergy          0.0001 \
	wolfeGradient        0.9 \
	fdTest               no
fluid-solvent H2O 55.338 ScalarEOS \
	epsBulk 78.4 \
	pMol 0.92466 \
	epsInf 1.77 \
	Pvap 1.06736e-10 \
	sigmaBulk 4.62e-05 \
	Rvdw 2.61727 \
	Res 1.42
forces-output-coords Positions
initial-magnetic-moments  \
	Cu1 1 1 1 1 1 1 1 1 1 1 1 1 1 1 1 1 1 1 1 1 1 1 1 \
	Cu2 -1 -1 -1 -1 -1 -1 -1 -1 -1 -1 -1 -1 -1 -1 -1 -1 -1 -1 -1 -1 -1 -1 -1 -1
ion Cu1   0.999361576000000   0.084185576000000   0.000943183000000 0
ion Cu1   0.499922198000000   0.085396839000000   0.501009820000000 0
ion Cu1   0.999168697000000   0.417452829000000   0.000726129000000 0
ion Cu1   0.498229682000000   0.749387674000000   0.500536007000000 0
ion Cu1   0.998872662000000   0.750746770000000   0.000616472000000 0
ion Cu1   0.501089934000000   0.252252121000000   0.747986457000000 0
ion Cu1   0.000917307000000   0.250703062000000   0.249439808000000 0
ion Cu1   0.001313901000000   0.584152089000000   0.249548774000000 0
ion Cu1   0.499219161000000   0.582305266000000   0.747504797000000 0
ion Cu1   0.001102133000000   0.917321654000000   0.249296268000000 0
ion Cu1   0.501052859000000   0.917558146000000   0.749237397000000 0
ion Cu1   0.249545387000000   0.083155235000000   0.251154621000000 0
ion Cu1   0.747940658000000   0.084390007000000   0.749890108000000 0
ion Cu1   0.749228800000000   0.414319759000000   0.750168748000000 0
ion Cu1   0.248898518000000   0.417585376000000   0.251529992000000 0
ion Cu1   0.748580277000000   0.748481735000000   0.750394773000000 0
ion Cu1   0.250346598000000   0.747270752000000   0.251629372000000 0
ion Cu1   0.750867748000000   0.249172372000000   0.998646211000000 0
ion Cu1   0.250535735000000   0.249491211000000   0.499532931000000 0
ion Cu1   0.253288180000000   0.580682396000000   0.499192130000000 0
ion Cu1   0.750359004000000   0.582155777000000   0.999055189000000 0
ion Cu1   0.251032560000000   0.915886248000000   0.499223780000000 0
ion Cu1   0.750742434000000   0.915941380000000   0.999140582000000 0
ion Cu2   0.249262279000000   0.082828513000000   0.750632049000000 0
ion Cu2   0.748899106000000   0.083077863000000   0.251129685000000 0
ion Cu2   0.750057690000000   0.414544336000000   0.251052185000000 0
ion Cu2   0.248971452000000   0.417079640000000   0.750337737000000 0
ion Cu2   0.748802069000000   0.748786091000000   0.250818049000000 0
ion Cu2   0.249357463000000   0.748719394000000   0.750428577000000 0
ion Cu2   0.251328761000000   0.249787158000000   0.999401311000000 0
ion Cu2   0.747940733000000   0.251371379000000   0.499283514000000 0
ion Cu2   0.751290161000000   0.582291811000000   0.498958360000000 0
ion Cu2   0.250811853000000   0.582476222000000   0.999616178000000 0
ion Cu2   0.750814654000000   0.915791915000000   0.499252858000000 0
ion Cu2   0.251070434000000   0.915782549000000   0.999301469000000 0
ion Cu2   0.499151596000000   0.084857938000000   0.000862903000000 0
ion Cu2   0.998695148000000   0.084640921000000   0.500780783000000 0
ion Cu2   0.999181808000000   0.417412828000000   0.500794051000000 0
ion Cu2   0.499413572000000   0.417468798000000   0.001027162000000 0
ion Cu2   0.999248830000000   0.750612889000000   0.500704091000000 0
ion Cu2   0.499066801000000   0.749977357000000   0.000699316000000 0
ion Cu2   0.502008566000000   0.252716118000000   0.250962096000000 0
ion Cu2   0.000547953000000   0.250874020000000   0.748961805000000 0
ion Cu2   0.000939420000000   0.584175602000000   0.748973203000000 0
ion Cu2   0.500503110000000   0.582336720000000   0.250761297000000 0
ion Cu2   0.000724266000000   0.917656024000000   0.749155587000000 0
ion Cu2   0.500767462000000   0.917394219000000   0.249228778000000 0
ion O   0.124510196000000   0.020329058000000   0.875865583000000 0
ion O   0.624106709000000   0.020118649000000   0.375805863000000 0
ion O   0.627127836000000   0.354780535000000   0.374219659000000 0
ion O   0.124475721000000   0.354052146000000   0.875505934000000 0
ion O   0.624710696000000   0.687330619000000   0.376225355000000 0
ion O   0.124332592000000   0.687547989000000   0.875667505000000 0
ion O   0.373997185000000   0.145964908000000   0.625467014000000 0
ion O   0.874152284000000   0.145882735000000   0.125747597000000 0
ion O   0.874249764000000   0.479477179000000   0.125944751000000 0
ion O   0.371359380000000   0.479273387000000   0.626869733000000 0
ion O   0.874050864000000   0.812989331000000   0.125747702000000 0
ion O   0.374486017000000   0.813248173000000   0.625886906000000 0
ion O   0.126104079000000   0.312817521000000   0.124627181000000 0
ion O   0.629538560000000   0.309207301000000   0.628071655000000 0
ion O   0.625552156000000   0.645276728000000   0.623498160000000 0
ion O   0.125015330000000   0.646489449000000   0.123939418000000 0
ion O   0.625591199000000   0.979483716000000   0.624090740000000 0
ion O   0.125973277000000   0.979647955000000   0.124365860000000 0
ion O   0.375712466000000   0.187462252000000   0.873864804000000 0
ion O   0.875468158000000   0.187171851000000   0.374464702000000 0
ion O   0.876568851000000   0.521145982000000   0.374239589000000 0
ion O   0.376737200000000   0.521679502000000   0.875943763000000 0
ion O   0.875559714000000   0.853780847000000   0.374017152000000 0
ion O   0.375861145000000   0.853639039000000   0.874238846000000 0
ion O   0.374972313000000   0.146958220000000   0.126568597000000 0
ion O   0.874376800000000   0.146032940000000   0.625326114000000 0
ion O   0.874692960000000   0.479721511000000   0.625625215000000 0
ion O   0.373879707000000   0.478489945000000   0.125178218000000 0
ion O   0.874252211000000   0.812956617000000   0.625892541000000 0
ion O   0.374224739000000   0.812862237000000   0.125781280000000 0
ion O   0.624360150000000   0.020493185000000   0.875807459000000 0
ion O   0.124286255000000   0.020413552000000   0.375841896000000 0
ion O   0.123802401000000   0.353559035000000   0.375955362000000 0
ion O   0.624375117000000   0.354348099000000   0.876189604000000 0
ion O   0.124445457000000   0.687063577000000   0.376493066000000 0
ion O   0.623545833000000   0.686356421000000   0.874869337000000 0
ion O   0.375824750000000   0.188019544000000   0.374914387000000 0
ion O   0.876450420000000   0.186879952000000   0.874478801000000 0
ion O   0.875257660000000   0.520497809000000   0.873918247000000 0
ion O   0.371369906000000   0.524179776000000   0.370678030000000 0
ion O   0.875422247000000   0.853658385000000   0.874043657000000 0
ion O   0.375803830000000   0.853748066000000   0.374292583000000 0
ion O   0.625536972000000   0.311627611000000   0.123056713000000 0
ion O   0.124828784000000   0.311909001000000   0.624043932000000 0
ion O   0.125761671000000   0.646386107000000   0.623762594000000 0
ion O   0.625523074000000   0.645763579000000   0.124640053000000 0
ion O   0.125670755000000   0.979597941000000   0.624124592000000 0
ion O   0.625689973000000   0.979730253000000   0.124256262000000 0
ion Li   0.499933531000000   0.417295040000000   0.500419196000000 0
ion-species /home/tjsmart/Pseudo/cu1_lda_v1.2.uspp
ion-species /home/tjsmart/Pseudo/cu2_lda_v1.2.uspp
ion-species /home/tjsmart/Pseudo/o_lda_v1.2.uspp
ion-species /home/tjsmart/Pseudo/li_lda_v1.4.uspp
ion-width 0
ionic-minimize  \
	dirUpdateScheme      L-BFGS \
	linminMethod         DirUpdateRecommended \
	nIterations          0 \
	history              15 \
	knormThreshold       0.0001 \
	energyDiffThreshold  1e-06 \
	nEnergyDiff          2 \
	alphaTstart          1 \
	alphaTmin            1e-10 \
	updateTestStepSize   yes \
	alphaTreduceFactor   0.1 \
	alphaTincreaseFactor 3 \
	nAlphaAdjustMax      3 \
	wolfeEnergy          0.0001 \
	wolfeGradient        0.9 \
	fdTest               no
kpoint   0.000000000000   0.000000000000   0.000000000000  1.00000000000000
kpoint-folding 3 3 3 
latt-move-scale 1 1 1
latt-scale 1 1 1 
lattice  \
	  17.038106135789999    0.000000000000000   -2.742292223570000  \
	   0.000000000000000   20.150103368060002    0.000000000000000  \
	   0.000000000000000    0.000000000000000   19.059049510700000 
lattice-minimize  \
	dirUpdateScheme      L-BFGS \
	linminMethod         DirUpdateRecommended \
	nIterations          0 \
	history              15 \
	knormThreshold       0 \
	energyDiffThreshold  1e-06 \
	nEnergyDiff          2 \
	alphaTstart          1 \
	alphaTmin            1e-10 \
	updateTestStepSize   yes \
	alphaTreduceFactor   0.1 \
	alphaTincreaseFactor 3 \
	nAlphaAdjustMax      3 \
	wolfeEnergy          0.0001 \
	wolfeGradient        0.9 \
	fdTest               no
lcao-params 30 1e-06 0.0005
pcm-variant GLSSA13
spintype z-spin
subspace-rotation-factor 1 yes
symmetries automatic
symmetry-threshold 0.0001



---------- Setting up symmetries ----------

Found 4 point-group symmetries of the bravais lattice
Found 1 space-group symmetries with basis
Applied RMS atom displacement 0 bohrs to make symmetries exact.

---------- Initializing the Grid ----------
R = 
[    17.0381          0   -2.74229  ]
[          0    20.1501          0  ]
[          0          0     19.059  ]
unit cell volume = 6543.35
G =
[   0.368773         -0  0.0530605  ]
[          0   0.311819         -0  ]
[          0          0   0.329669  ]
Minimum fftbox size, Smin = [  96  112  108  ]
Chosen fftbox size, S = [  96  112  108  ]

---------- Initializing tighter grid for wavefunction operations ----------
R = 
[    17.0381          0   -2.74229  ]
[          0    20.1501          0  ]
[          0          0     19.059  ]
unit cell volume = 6543.35
G =
[   0.368773         -0  0.0530605  ]
[          0   0.311819         -0  ]
[          0          0   0.329669  ]
Minimum fftbox size, Smin = [  80  92  88  ]
Chosen fftbox size, S = [  80  96  90  ]

---------- Exchange Correlation functional ----------
Initalized PBE GGA exchange.
Initalized PBE GGA correlation.

---------- Setting up pseudopotentials ----------
Width of ionic core gaussian charges (only for fluid interactions / plotting) set to 0

Reading pseudopotential file '/home/tjsmart/Pseudo/cu1_lda_v1.2.uspp':
  Title: Cu.  Created by USPP 7.3.6 on 3-2-2014
  Reference state energy: -200.893412.  19 valence electrons in orbitals:
    |300>  occupation: 2  eigenvalue: -4.999978
    |310>  occupation: 6  eigenvalue: -3.441544
    |320>  occupation: 8  eigenvalue: -0.936613
    |400>  occupation: 2  eigenvalue: -0.578611
    |410>  occupation: 0  eigenvalue: -0.334313
  lMax: 2  lLocal: 3  QijEcut: 6
  6 projectors sampled on a log grid with 613 points:
    l: 0  eig: -4.999980  rCut: 1.4
    l: 0  eig: -0.578613  rCut: 1.4
    l: 1  eig: -3.441546  rCut: 1.55
    l: 1  eig: -0.334316  rCut: 1.55
    l: 2  eig: -0.936615  rCut: 1.5
    l: 2  eig: 1.500000  rCut: 1.5
  Partial core density with radius 0.8
  Transforming core density to a uniform radial grid of dG=0.02 with 1612 points.
  Transforming local potential to a uniform radial grid of dG=0.02 with 1612 points.
  Transforming nonlocal projectors to a uniform radial grid of dG=0.02 with 483 points.
  Transforming density augmentations to a uniform radial grid of dG=0.02 with 1612 points.
  Transforming atomic orbitals to a uniform radial grid of dG=0.02 with 483 points.
  Transforming overlap'd orbitals to a uniform radial grid of dG=0.02 with 483 points.
  Core radius for overlap checks: 1.55 bohrs.

Reading pseudopotential file '/home/tjsmart/Pseudo/cu2_lda_v1.2.uspp':
  Title: Cu.  Created by USPP 7.3.6 on 3-2-2014
  Reference state energy: -200.893412.  19 valence electrons in orbitals:
    |300>  occupation: 2  eigenvalue: -4.999978
    |310>  occupation: 6  eigenvalue: -3.441544
    |320>  occupation: 8  eigenvalue: -0.936613
    |400>  occupation: 2  eigenvalue: -0.578611
    |410>  occupation: 0  eigenvalue: -0.334313
  lMax: 2  lLocal: 3  QijEcut: 6
  6 projectors sampled on a log grid with 613 points:
    l: 0  eig: -4.999980  rCut: 1.4
    l: 0  eig: -0.578613  rCut: 1.4
    l: 1  eig: -3.441546  rCut: 1.55
    l: 1  eig: -0.334316  rCut: 1.55
    l: 2  eig: -0.936615  rCut: 1.5
    l: 2  eig: 1.500000  rCut: 1.5
  Partial core density with radius 0.8
  Transforming core density to a uniform radial grid of dG=0.02 with 1612 points.
  Transforming local potential to a uniform radial grid of dG=0.02 with 1612 points.
  Transforming nonlocal projectors to a uniform radial grid of dG=0.02 with 483 points.
  Transforming density augmentations to a uniform radial grid of dG=0.02 with 1612 points.
  Transforming atomic orbitals to a uniform radial grid of dG=0.02 with 483 points.
  Transforming overlap'd orbitals to a uniform radial grid of dG=0.02 with 483 points.
  Core radius for overlap checks: 1.55 bohrs.

Reading pseudopotential file '/home/tjsmart/Pseudo/o_lda_v1.2.uspp':
  Title: O.  Created by USPP 7.3.6 on 3-2-2014
  Reference state energy: -15.860043.  6 valence electrons in orbitals:
    |200>  occupation: 2  eigenvalue: -0.871182
    |210>  occupation: 4  eigenvalue: -0.338298
  lMax: 2  lLocal: 2  QijEcut: 6
  5 projectors sampled on a log grid with 511 points:
    l: 0  eig: -0.871182  rCut: 1.25
    l: 0  eig: 0.000000  rCut: 1.25
    l: 1  eig: -0.338299  rCut: 1.25
    l: 1  eig: 0.000000  rCut: 1.25
    l: 2  eig: 1.000000  rCut: 1.25
  Partial core density with radius 0.7
  Transforming core density to a uniform radial grid of dG=0.02 with 1612 points.
  Transforming local potential to a uniform radial grid of dG=0.02 with 1612 points.
  Transforming nonlocal projectors to a uniform radial grid of dG=0.02 with 483 points.
  Transforming density augmentations to a uniform radial grid of dG=0.02 with 1612 points.
  Transforming atomic orbitals to a uniform radial grid of dG=0.02 with 483 points.
  Transforming overlap'd orbitals to a uniform radial grid of dG=0.02 with 483 points.
  Core radius for overlap checks: 1.25 bohrs.

Reading pseudopotential file '/home/tjsmart/Pseudo/li_lda_v1.4.uspp':
  Title: Li.  Created by USPP 7.3.6 on 13-4-15
  Reference state energy: -7.006820.  3 valence electrons in orbitals:
    |100>  occupation: 2  eigenvalue: -2.004879
    |200>  occupation: 0.55  eigenvalue: -0.186480
    |210>  occupation: 0  eigenvalue: -0.115107
  lMax: 1  lLocal: 2  QijEcut: 6
  5 projectors sampled on a log grid with 541 points:
    l: 0  eig: -2.004879  rCut: 1.3
    l: 0  eig: -0.186480  rCut: 1.3
    l: 0  eig: 1.000000  rCut: 1.3
    l: 1  eig: -0.115107  rCut: 2.001
    l: 1  eig: 1.000000  rCut: 2.001
  Transforming local potential to a uniform radial grid of dG=0.02 with 1612 points.
  Transforming nonlocal projectors to a uniform radial grid of dG=0.02 with 483 points.
  Transforming density augmentations to a uniform radial grid of dG=0.02 with 1612 points.
  Transforming atomic orbitals to a uniform radial grid of dG=0.02 with 483 points.
  Transforming overlap'd orbitals to a uniform radial grid of dG=0.02 with 483 points.
  Core radius for overlap checks: 2.00 bohrs.

Folded 1 k-points by 3x3x3 to 27 k-points.

---------- Setting up k-points, bands, fillings ----------
Adding inversion symmetry to k-mesh for non-inversion-symmetric unit cell.
Reduced to 14 k-points under symmetry. 
Computing the number of bands and number of electrons
Calculating initial fillings.
nElectrons: 1185.000000   nBands: 860   nStates: 28

----- Setting up reduced wavefunction bases (one per k-point) -----
average nbasis = 39059.148 , ideal nbasis = 39066.441

---------- Setting up ewald sum ----------
Optimum gaussian width for ewald sums = 3.487103 bohr.
Real space sum over 343 unit cells with max indices [  3  3  3  ]
Reciprocal space sum over 8379 terms with max indices [  9  10  10  ]

---------- Allocating electronic variables ----------
Initializing wave functions:  linear combination of atomic orbitals
Note: number of bands (860) exceeds available atomic orbitals (808)
Cu1 (M=1) pseudo-atom majority spin occupations:   s ( 1 1 )  p ( 3 0 )  d ( 5 )
Cu1 (M=1) pseudo-atom minority spin occupations:   s ( 1 0 )  p ( 3 0 )  d ( 5 )
Cu2 (M=1) pseudo-atom majority spin occupations:   s ( 1 1 )  p ( 3 0 )  d ( 5 )
Cu2 (M=1) pseudo-atom minority spin occupations:   s ( 1 0 )  p ( 3 0 )  d ( 5 )
O pseudo-atom occupations:   s ( 2 )  p ( 4 )
Li pseudo-atom occupations:   s ( 2 1 )  p ( 0 )
	FillingsUpdate:  mu: +1.853943800  nElectrons: 1185.000000  magneticMoment: [ Abs: 1.42496  Tot: -1.00000 ]
LCAOMinimize: Iter:   0  F: -9669.3151145435331273  |grad|_K:  6.084e-03  alpha:  1.000e+00
	FillingsUpdate:  mu: +1.486186674  nElectrons: 1185.000000  magneticMoment: [ Abs: 1.97827  Tot: -1.00000 ]
LCAOMinimize: Iter:   1  F: -9823.5874034038515674  |grad|_K:  8.429e-03  alpha:  1.343e-01  linmin: -4.517e-02  cgtest:  3.935e-01  t[s]:    517.18
	FillingsUpdate:  mu: +1.278407258  nElectrons: 1185.000000  magneticMoment: [ Abs: 1.57266  Tot: -1.00000 ]
LCAOMinimize: Iter:   2  F: -9961.3540460221793182  |grad|_K:  9.761e-03  alpha:  5.677e-02  linmin:  2.782e-03  cgtest: -1.205e-01  t[s]:    671.69
LCAOMinimize: 	Step increased F by 1.665042e+01, reducing alpha to 1.301692e-03.
	FillingsUpdate:  mu: +1.277561421  nElectrons: 1185.000000  magneticMoment: [ Abs: 1.53949  Tot: -1.00000 ]
LCAOMinimize: Iter:   3  F: -9963.2192528585292166  |grad|_K:  9.959e-03  alpha:  1.302e-03  linmin: -7.519e-03  cgtest:  9.985e-01  t[s]:    939.95
LCAOMinimize: 	Predicted alpha/alphaT>3.000000, increasing alphaT to 3.905077e-03.
LCAOMinimize: 	Wrong curvature in test step, increasing alphaT to 1.171523e-02.
	FillingsUpdate:  mu: +1.264226983  nElectrons: 1185.000000  magneticMoment: [ Abs: 1.55153  Tot: -1.00000 ]
LCAOMinimize: Iter:   4  F: -9971.3620157247933093  |grad|_K:  9.852e-03  alpha: -1.259e+00  linmin: -6.182e-02  cgtest:  9.808e-01  t[s]:   1123.74
LCAOMinimize: 	Step increased F by 5.158980e+01, reducing alpha to 2.115590e-02.
	FillingsUpdate:  mu: +1.195236042  nElectrons: 1185.000000  magneticMoment: [ Abs: 1.57843  Tot: -1.00000 ]
LCAOMinimize: Iter:   5  F: -10015.5868496195125772  |grad|_K:  9.136e-03  alpha:  2.116e-02  linmin: -6.883e-02  cgtest:  8.755e-01  t[s]:   1389.36
LCAOMinimize: 	Predicted alpha/alphaT>3.000000, increasing alphaT to 6.346769e-02.
	FillingsUpdate:  mu: +1.644256319  nElectrons: 1185.000000  magneticMoment: [ Abs: 1.46682  Tot: -1.00000 ]
LCAOMinimize: Iter:   6  F: -10048.8049851533196488  |grad|_K:  1.383e-02  alpha:  1.716e-01  linmin:  2.074e-02  cgtest: -5.428e-01  t[s]:   1585.63
LCAOMinimize: 	Bad step direction: g.d > 0.
LCAOMinimize: 	Undoing step.
LCAOMinimize: 	Step failed: resetting search direction.
	FillingsUpdate:  mu: +1.644256319  nElectrons: 1185.000000  magneticMoment: [ Abs: 1.46682  Tot: -1.00000 ]
LCAOMinimize: Iter:   7  F: -10048.8049851533196488  |grad|_K:  1.383e-02  alpha:  0.000e+00
	FillingsUpdate:  mu: +1.082018744  nElectrons: 1185.000000  magneticMoment: [ Abs: 1.39341  Tot: -1.00000 ]
LCAOMinimize: Iter:   8  F: -10181.4826601943641435  |grad|_K:  4.827e-03  alpha:  7.610e-02  linmin:  4.066e-02  cgtest: -5.496e-01  t[s]:   1852.31
	FillingsUpdate:  mu: +1.109153318  nElectrons: 1185.000000  magneticMoment: [ Abs: 1.33766  Tot: -1.00000 ]
LCAOMinimize: Iter:   9  F: -10188.0286311434574600  |grad|_K:  5.451e-03  alpha:  4.886e-02  linmin:  9.204e-04  cgtest:  6.721e-01  t[s]:   2005.72
	FillingsUpdate:  mu: +1.205413833  nElectrons: 1185.000000  magneticMoment: [ Abs: 1.25123  Tot: -1.00000 ]
LCAOMinimize: Iter:  10  F: -10194.5245300919868896  |grad|_K:  6.154e-03  alpha:  8.614e-02  linmin:  1.224e-02  cgtest: -7.239e-01  t[s]:   2159.64
LCAOMinimize: 	Bad step direction: g.d > 0.
LCAOMinimize: 	Undoing step.
LCAOMinimize: 	Step failed: resetting search direction.
	FillingsUpdate:  mu: +1.205413833  nElectrons: 1185.000000  magneticMoment: [ Abs: 1.25123  Tot: -1.00000 ]
LCAOMinimize: Iter:  11  F: -10194.5245300919868896  |grad|_K:  6.154e-03  alpha:  0.000e+00
	FillingsUpdate:  mu: +1.078105682  nElectrons: 1185.000000  magneticMoment: [ Abs: 1.21125  Tot: -1.00000 ]
LCAOMinimize: Iter:  12  F: -10218.9405547862479580  |grad|_K:  2.914e-03  alpha:  3.890e-02  linmin:  2.590e-02  cgtest: -4.868e-01  t[s]:   2427.53
	FillingsUpdate:  mu: +1.047507255  nElectrons: 1185.000000  magneticMoment: [ Abs: 1.20692  Tot: -1.00000 ]
LCAOMinimize: Iter:  13  F: -10219.1276107234007213  |grad|_K:  3.096e-03  alpha:  6.153e-03  linmin: -6.650e-04  cgtest:  9.801e-01  t[s]:   2582.72
LCAOMinimize: 	Predicted alpha/alphaT>3.000000, increasing alphaT to 1.845821e-02.
	FillingsUpdate:  mu: +1.076502692  nElectrons: 1185.000000  magneticMoment: [ Abs: 1.17893  Tot: -1.00000 ]
LCAOMinimize: Iter:  14  F: -10223.3281197867454466  |grad|_K:  2.443e-03  alpha:  4.431e-02  linmin:  3.154e-03  cgtest: -2.254e-01  t[s]:   2778.06
LCAOMinimize: 	Predicted alpha/alphaT>3.000000, increasing alphaT to 1.329204e-01.
LCAOMinimize: 	Predicted alpha/alphaT>3.000000, increasing alphaT to 3.987612e-01.
	FillingsUpdate:  mu: +1.059473573  nElectrons: 1185.000000  magneticMoment: [ Abs: 1.16376  Tot: -1.00000 ]
LCAOMinimize: Iter:  15  F: -10226.5032133398108272  |grad|_K:  2.572e-03  alpha:  3.233e-02  linmin: -9.536e-03  cgtest:  9.012e-01  t[s]:   3014.83
	FillingsUpdate:  mu: +1.015591509  nElectrons: 1185.000000  magneticMoment: [ Abs: 1.13832  Tot: -1.00000 ]
LCAOMinimize: Iter:  16  F: -10230.3255262709699309  |grad|_K:  2.515e-03  alpha:  4.945e-02  linmin: -1.376e-03  cgtest: -2.242e-01  t[s]:   3167.03
LCAOMinimize: 	Wrong curvature in test step, increasing alphaT to 1.483385e-01.
	FillingsUpdate:  mu: +0.949769099  nElectrons: 1185.000000  magneticMoment: [ Abs: 1.13335  Tot: -1.00000 ]
LCAOMinimize: Iter:  17  F: -10238.6619102486874908  |grad|_K:  2.573e-03  alpha: -1.288e-01  linmin: -2.224e-02  cgtest:  8.882e-01  t[s]:   3312.20
	FillingsUpdate:  mu: +0.920387966  nElectrons: 1185.000000  magneticMoment: [ Abs: 1.16536  Tot: -1.00000 ]
LCAOMinimize: Iter:  18  F: -10245.3059228244601400  |grad|_K:  2.618e-03  alpha:  6.475e-02  linmin: -1.024e-02  cgtest: -1.420e-01  t[s]:   3465.13
LCAOMinimize: 	Predicted alpha/alphaT>3.000000, increasing alphaT to 1.942459e-01.
	FillingsUpdate:  mu: +0.775464465  nElectrons: 1185.000000  magneticMoment: [ Abs: 1.65278  Tot: -1.00000 ]
LCAOMinimize: Iter:  19  F: -10257.4186169588883786  |grad|_K:  2.215e-03  alpha:  7.080e-02  linmin: -1.185e-02  cgtest:  8.284e-01  t[s]:   3660.29
	FillingsUpdate:  mu: +0.667162579  nElectrons: 1185.000000  magneticMoment: [ Abs: 2.00623  Tot: -1.00000 ]
LCAOMinimize: Iter:  20  F: -10259.5538170151849044  |grad|_K:  9.736e-04  alpha:  3.625e-02  linmin: -6.480e-03  cgtest:  5.466e-02  t[s]:   3813.20
LCAOMinimize: 	Predicted alpha/alphaT>3.000000, increasing alphaT to 1.087636e-01.
	FillingsUpdate:  mu: +0.652619158  nElectrons: 1185.000000  magneticMoment: [ Abs: 3.06219  Tot: -1.00000 ]
LCAOMinimize: Iter:  21  F: -10261.5298031436705060  |grad|_K:  1.508e-03  alpha:  2.109e-01  linmin:  5.291e-03  cgtest: -5.683e-02  t[s]:   4007.25
	FillingsUpdate:  mu: +0.575792424  nElectrons: 1185.000000  magneticMoment: [ Abs: 4.68131  Tot: -1.00000 ]
LCAOMinimize: Iter:  22  F: -10262.9719572593076009  |grad|_K:  1.040e-03  alpha:  4.697e-02  linmin: -2.070e-02  cgtest:  8.966e-01  t[s]:   4162.94
LCAOMinimize: Encountered beta<0, resetting CG.
	FillingsUpdate:  mu: +0.537868406  nElectrons: 1185.000000  magneticMoment: [ Abs: 5.69201  Tot: -1.00000 ]
LCAOMinimize: Iter:  23  F: -10263.4708591822345625  |grad|_K:  3.213e-04  alpha:  4.451e-02  linmin:  3.895e-03  cgtest:  2.822e-03  t[s]:   4316.03
	FillingsUpdate:  mu: +0.538213732  nElectrons: 1185.000000  magneticMoment: [ Abs: 7.33039  Tot: -1.00000 ]
LCAOMinimize: Iter:  24  F: -10263.5682267482043244  |grad|_K:  3.908e-04  alpha:  8.936e-02  linmin: -3.490e-03  cgtest:  2.607e-02  t[s]:   4470.30
	FillingsUpdate:  mu: +0.533347742  nElectrons: 1185.000000  magneticMoment: [ Abs: 13.94255  Tot: -1.00000 ]
LCAOMinimize: Iter:  25  F: -10263.8126300471813011  |grad|_K:  3.557e-04  alpha:  1.433e-01  linmin: -3.614e-03  cgtest: -2.073e-02  t[s]:   4625.50
	FillingsUpdate:  mu: +0.516570691  nElectrons: 1185.000000  magneticMoment: [ Abs: 23.10607  Tot: -1.00000 ]
LCAOMinimize: Iter:  26  F: -10264.0330553091771435  |grad|_K:  4.361e-04  alpha:  1.564e-01  linmin: -7.650e-03  cgtest:  4.370e-01  t[s]:   4778.21
	FillingsUpdate:  mu: +0.459366154  nElectrons: 1185.000000  magneticMoment: [ Abs: 35.84299  Tot: -1.00000 ]
LCAOMinimize: Iter:  27  F: -10264.5764088742380409  |grad|_K:  3.609e-04  alpha:  2.487e-01  linmin: -3.462e-02  cgtest:  9.946e-01  t[s]:   4931.95
LCAOMinimize: Encountered beta<0, resetting CG.
	FillingsUpdate:  mu: +0.476132793  nElectrons: 1185.000000  magneticMoment: [ Abs: 40.18211  Tot: -1.00000 ]
LCAOMinimize: Iter:  28  F: -10265.0811041637425660  |grad|_K:  1.672e-04  alpha:  3.529e-01  linmin: -8.498e-02  cgtest:  6.169e-01  t[s]:   5084.87
LCAOMinimize: Encountered beta<0, resetting CG.
	FillingsUpdate:  mu: +0.477741328  nElectrons: 1185.000000  magneticMoment: [ Abs: 41.63369  Tot: -1.00000 ]
LCAOMinimize: Iter:  29  F: -10265.1987556506446708  |grad|_K:  1.034e-04  alpha:  3.959e-01  linmin: -3.181e-02  cgtest:  3.728e-01  t[s]:   5238.58
	FillingsUpdate:  mu: +0.481347723  nElectrons: 1185.000000  magneticMoment: [ Abs: 42.94133  Tot: -1.00000 ]
LCAOMinimize: Iter:  30  F: -10265.2573930791877501  |grad|_K:  6.072e-05  alpha:  4.832e-01  linmin: -2.510e-02  cgtest:  1.603e-01  t[s]:   5390.93
LCAOMinimize: None of the convergence criteria satisfied after 30 iterations.


---- Citations for features of the code used in this run ----

   Software package:
      R. Sundararaman, K. Letchworth-Weaver, K.A. Schwarz, D. Gunceler, Y. Ozhabes and T.A. Arias, 'JDFTx: software for joint density-functional theory', SoftwareX 6, 278 (2017)

   Correction scheme for charged bulk defects:
      C Freysoldt, J Neugebauer and C. van de Walle, Phys. Rev. Lett. 102, 016402 (2009)

   Simplified rotationally-invariant DFT+U:
      S. L. Dudarev et al., Phys. Rev. B 57, 1505 (1998)

   gga-PBE exchange-correlation functional:
      J.P. Perdew, K. Burke and M. Ernzerhof, Phys. Rev. Lett. 77, 3865 (1996)

   Smooth electrostatic potentials by atom-potential subtraction:
      R. Sundararaman and Y. Ping, J. Chem. Phys. 146, 104109 (2017)

This list may not be complete. Please suggest additional citations or
report any other bugs at https://github.com/shankar1729/jdftx/issues

Initialization completed successfully at t[s]:   5443.25

	FillingsUpdate:  mu: +0.481347723  nElectrons: 1185.000000  magneticMoment: [ Abs: 42.94133  Tot: -1.00000 ]

-------- Electronic minimization -----------
Will mix electronic density at each iteration.
	FillingsUpdate:  mu: +0.481347723  nElectrons: 1185.000000  magneticMoment: [ Abs: 42.94133  Tot: -1.00000 ]
	FillingsUpdate:  mu: +0.474227370  nElectrons: 1185.000000  magneticMoment: [ Abs: 42.94133  Tot: -1.00000 ]
SCF: Cycle:  0   F: -10262.827357342610412   dF: +2.430e+00   |Residual|: 3.875e+00   |deigs|: 5.999e-02  t[s]:   6085.96
	FillingsUpdate:  mu: +0.401616718  nElectrons: 1185.000000  magneticMoment: [ Abs: 45.54777  Tot: -1.00000 ]
SCF: Cycle:  1   F: -10266.958675206948101   dF: -4.131e+00   |Residual|: 3.313e+00   |deigs|: 1.377e-01  t[s]:   6604.16
	FillingsUpdate:  mu: +0.396614830  nElectrons: 1185.000000  magneticMoment: [ Abs: 39.89520  Tot: -1.00000 ]
SCF: Cycle:  2   F: -10271.000275933298326   dF: -4.042e+00   |Residual|: 6.143e-01   |deigs|: 5.155e-02  t[s]:   7120.92
	FillingsUpdate:  mu: +0.404079183  nElectrons: 1185.000000  magneticMoment: [ Abs: 42.16258  Tot: -1.00000 ]
SCF: Cycle:  3   F: -10271.028843203052020   dF: -2.857e-02   |Residual|: 4.659e-01   |deigs|: 4.490e-03  t[s]:   7636.89
	FillingsUpdate:  mu: +0.403336358  nElectrons: 1185.000000  magneticMoment: [ Abs: 41.57745  Tot: -1.00000 ]
SCF: Cycle:  4   F: -10271.038234563389778   dF: -9.391e-03   |Residual|: 3.066e-01   |deigs|: 3.333e-03  t[s]:   8154.76
	FillingsUpdate:  mu: +0.402680898  nElectrons: 1185.000000  magneticMoment: [ Abs: 40.69184  Tot: -1.00000 ]
SCF: Cycle:  5   F: -10271.051867765436327   dF: -1.363e-02   |Residual|: 1.436e-01   |deigs|: 3.036e-03  t[s]:   8677.19
	FillingsUpdate:  mu: +0.402114070  nElectrons: 1185.000000  magneticMoment: [ Abs: 40.14923  Tot: -1.00000 ]
SCF: Cycle:  6   F: -10271.054372634112951   dF: -2.505e-03   |Residual|: 7.918e-02   |deigs|: 1.135e-03  t[s]:   9203.57
	FillingsUpdate:  mu: +0.401455698  nElectrons: 1185.000000  magneticMoment: [ Abs: 39.60088  Tot: -1.00000 ]
SCF: Cycle:  7   F: -10271.055213443180037   dF: -8.408e-04   |Residual|: 1.802e-02   |deigs|: 1.186e-03  t[s]:   9734.41
	FillingsUpdate:  mu: +0.401393226  nElectrons: 1185.000000  magneticMoment: [ Abs: 39.71369  Tot: -1.00000 ]
SCF: Cycle:  8   F: -10271.055334695072816   dF: -1.213e-04   |Residual|: 5.431e-03   |deigs|: 1.662e-04  t[s]:  10263.30
	FillingsUpdate:  mu: +0.401316816  nElectrons: 1185.000000  magneticMoment: [ Abs: 39.71459  Tot: -1.00000 ]
SCF: Cycle:  9   F: -10271.055341749806757   dF: -7.055e-06   |Residual|: 3.562e-03   |deigs|: 3.797e-05  t[s]:  10796.62

Dumping 'cuo.fillings' ... done
Dumping 'cuo.wfns' ... done
Dumping 'cuo.eigenvals' ... done
Dumping 'cuo.scfHistory' ... done
	FillingsUpdate:  mu: +0.401260638  nElectrons: 1185.000000  magneticMoment: [ Abs: 39.71274  Tot: -1.00000 ]
SCF: Cycle: 10   F: -10271.055346010445646   dF: -4.261e-06   |Residual|: 1.958e-03   |deigs|: 5.434e-05  t[s]:  11355.06
	FillingsUpdate:  mu: +0.401259003  nElectrons: 1185.000000  magneticMoment: [ Abs: 39.72156  Tot: -1.00000 ]
SCF: Cycle: 11   F: -10271.055346683153402   dF: -6.727e-07   |Residual|: 1.228e-03   |deigs|: 1.649e-05  t[s]:  11885.11
	FillingsUpdate:  mu: +0.401251959  nElectrons: 1185.000000  magneticMoment: [ Abs: 39.72163  Tot: -1.00000 ]
SCF: Cycle: 12   F: -10271.055346880788420   dF: -1.976e-07   |Residual|: 7.795e-04   |deigs|: 1.191e-05  t[s]:  12419.50
	FillingsUpdate:  mu: +0.401256183  nElectrons: 1185.000000  magneticMoment: [ Abs: 39.72044  Tot: -1.00000 ]
SCF: Cycle: 13   F: -10271.055346965929857   dF: -8.514e-08   |Residual|: 2.959e-04   |deigs|: 9.434e-06  t[s]:  12952.62
	FillingsUpdate:  mu: +0.401258143  nElectrons: 1185.000000  magneticMoment: [ Abs: 39.72059  Tot: -1.00000 ]
SCF: Cycle: 14   F: -10271.055346988539895   dF: -2.261e-08   |Residual|: 1.761e-04   |deigs|: 6.189e-06  t[s]:  13518.48
SCF: Converged (|Delta E|<1.000000e-07 for 2 iters).


# Ionic positions in lattice coordinates:
ion Cu1   0.999361576000000   0.084185576000000   0.000943183000000 0
ion Cu1   0.499922198000000   0.085396839000000   0.501009820000000 0
ion Cu1   0.999168697000000   0.417452829000000   0.000726129000000 0
ion Cu1   0.498229682000000   0.749387674000000   0.500536007000000 0
ion Cu1   0.998872662000000   0.750746770000000   0.000616472000000 0
ion Cu1   0.501089934000000   0.252252121000000   0.747986457000000 0
ion Cu1   0.000917307000000   0.250703062000000   0.249439808000000 0
ion Cu1   0.001313901000000   0.584152089000000   0.249548774000000 0
ion Cu1   0.499219161000000   0.582305266000000   0.747504797000000 0
ion Cu1   0.001102133000000   0.917321654000000   0.249296268000000 0
ion Cu1   0.501052859000000   0.917558146000000   0.749237397000000 0
ion Cu1   0.249545387000000   0.083155235000000   0.251154621000000 0
ion Cu1   0.747940658000000   0.084390007000000   0.749890108000000 0
ion Cu1   0.749228800000000   0.414319759000000   0.750168748000000 0
ion Cu1   0.248898518000000   0.417585376000000   0.251529992000000 0
ion Cu1   0.748580277000000   0.748481735000000   0.750394773000000 0
ion Cu1   0.250346598000000   0.747270752000000   0.251629372000000 0
ion Cu1   0.750867748000000   0.249172372000000   0.998646211000000 0
ion Cu1   0.250535735000000   0.249491211000000   0.499532931000000 0
ion Cu1   0.253288180000000   0.580682396000000   0.499192130000000 0
ion Cu1   0.750359004000000   0.582155777000000   0.999055189000000 0
ion Cu1   0.251032560000000   0.915886248000000   0.499223780000000 0
ion Cu1   0.750742434000000   0.915941380000000   0.999140582000000 0
ion Cu2   0.249262279000000   0.082828513000000   0.750632049000000 0
ion Cu2   0.748899106000000   0.083077863000000   0.251129685000000 0
ion Cu2   0.750057690000000   0.414544336000000   0.251052185000000 0
ion Cu2   0.248971452000000   0.417079640000000   0.750337737000000 0
ion Cu2   0.748802069000000   0.748786091000000   0.250818049000000 0
ion Cu2   0.249357463000000   0.748719394000000   0.750428577000000 0
ion Cu2   0.251328761000000   0.249787158000000   0.999401311000000 0
ion Cu2   0.747940733000000   0.251371379000000   0.499283514000000 0
ion Cu2   0.751290161000000   0.582291811000000   0.498958360000000 0
ion Cu2   0.250811853000000   0.582476222000000   0.999616178000000 0
ion Cu2   0.750814654000000   0.915791915000000   0.499252858000000 0
ion Cu2   0.251070434000000   0.915782549000000   0.999301469000000 0
ion Cu2   0.499151596000000   0.084857938000000   0.000862903000000 0
ion Cu2   0.998695148000000   0.084640921000000   0.500780783000000 0
ion Cu2   0.999181808000000   0.417412828000000   0.500794051000000 0
ion Cu2   0.499413572000000   0.417468798000000   0.001027162000000 0
ion Cu2   0.999248830000000   0.750612889000000   0.500704091000000 0
ion Cu2   0.499066801000000   0.749977357000000   0.000699316000000 0
ion Cu2   0.502008566000000   0.252716118000000   0.250962096000000 0
ion Cu2   0.000547953000000   0.250874020000000   0.748961805000000 0
ion Cu2   0.000939420000000   0.584175602000000   0.748973203000000 0
ion Cu2   0.500503110000000   0.582336720000000   0.250761297000000 0
ion Cu2   0.000724266000000   0.917656024000000   0.749155587000000 0
ion Cu2   0.500767462000000   0.917394219000000   0.249228778000000 0
ion O   0.124510196000000   0.020329058000000   0.875865583000000 0
ion O   0.624106709000000   0.020118649000000   0.375805863000000 0
ion O   0.627127836000000   0.354780535000000   0.374219659000000 0
ion O   0.124475721000000   0.354052146000000   0.875505934000000 0
ion O   0.624710696000000   0.687330619000000   0.376225355000000 0
ion O   0.124332592000000   0.687547989000000   0.875667505000000 0
ion O   0.373997185000000   0.145964908000000   0.625467014000000 0
ion O   0.874152284000000   0.145882735000000   0.125747597000000 0
ion O   0.874249764000000   0.479477179000000   0.125944751000000 0
ion O   0.371359380000000   0.479273387000000   0.626869733000000 0
ion O   0.874050864000000   0.812989331000000   0.125747702000000 0
ion O   0.374486017000000   0.813248173000000   0.625886906000000 0
ion O   0.126104079000000   0.312817521000000   0.124627181000000 0
ion O   0.629538560000000   0.309207301000000   0.628071655000000 0
ion O   0.625552156000000   0.645276728000000   0.623498160000000 0
ion O   0.125015330000000   0.646489449000000   0.123939418000000 0
ion O   0.625591199000000   0.979483716000000   0.624090740000000 0
ion O   0.125973277000000   0.979647955000000   0.124365860000000 0
ion O   0.375712466000000   0.187462252000000   0.873864804000000 0
ion O   0.875468158000000   0.187171851000000   0.374464702000000 0
ion O   0.876568851000000   0.521145982000000   0.374239589000000 0
ion O   0.376737200000000   0.521679502000000   0.875943763000000 0
ion O   0.875559714000000   0.853780847000000   0.374017152000000 0
ion O   0.375861145000000   0.853639039000000   0.874238846000000 0
ion O   0.374972313000000   0.146958220000000   0.126568597000000 0
ion O   0.874376800000000   0.146032940000000   0.625326114000000 0
ion O   0.874692960000000   0.479721511000000   0.625625215000000 0
ion O   0.373879707000000   0.478489945000000   0.125178218000000 0
ion O   0.874252211000000   0.812956617000000   0.625892541000000 0
ion O   0.374224739000000   0.812862237000000   0.125781280000000 0
ion O   0.624360150000000   0.020493185000000   0.875807459000000 0
ion O   0.124286255000000   0.020413552000000   0.375841896000000 0
ion O   0.123802401000000   0.353559035000000   0.375955362000000 0
ion O   0.624375117000000   0.354348099000000   0.876189604000000 0
ion O   0.124445457000000   0.687063577000000   0.376493066000000 0
ion O   0.623545833000000   0.686356421000000   0.874869337000000 0
ion O   0.375824750000000   0.188019544000000   0.374914387000000 0
ion O   0.876450420000000   0.186879952000000   0.874478801000000 0
ion O   0.875257660000000   0.520497809000000   0.873918247000000 0
ion O   0.371369906000000   0.524179776000000   0.370678030000000 0
ion O   0.875422247000000   0.853658385000000   0.874043657000000 0
ion O   0.375803830000000   0.853748066000000   0.374292583000000 0
ion O   0.625536972000000   0.311627611000000   0.123056713000000 0
ion O   0.124828784000000   0.311909001000000   0.624043932000000 0
ion O   0.125761671000000   0.646386107000000   0.623762594000000 0
ion O   0.625523074000000   0.645763579000000   0.124640053000000 0
ion O   0.125670755000000   0.979597941000000   0.624124592000000 0
ion O   0.625689973000000   0.979730253000000   0.124256262000000 0
ion Li   0.499933531000000   0.417295040000000   0.500419196000000 0


# Forces in Lattice coordinates:
force Cu1   0.022537152992248   0.011776403418566  -0.013012446420825 0
force Cu1  -0.009837336983325   0.005819100998180  -0.006734386931161 0
force Cu1   0.003616932181559  -0.031313217719909  -0.011156450484735 0
force Cu1  -0.000664681310545  -0.042524852766578  -0.006891811912919 0
force Cu1  -0.003932583444662  -0.006088321504344  -0.010766172143365 0
force Cu1  -0.005989048359798   0.019032831422434  -0.049554772941297 0
force Cu1  -0.053556838543323  -0.012365432052438   0.038737337637919 0
force Cu1  -0.035017260033126   0.011364459627070   0.033694303176439 0
force Cu1  -0.020139499967509  -0.070988234469291  -0.052174611118127 0
force Cu1  -0.004539700495617  -0.016676596495904   0.006406352798627 0
force Cu1  -0.014626346520166  -0.008239080707387   0.002364938395469 0
force Cu1   0.016580462548531   0.032861909433832  -0.001173030809396 0
force Cu1   0.015184223878619   0.044151163530891  -0.036118913074903 0
force Cu1  -0.029344443754490  -0.038047048570270  -0.070145494319090 0
force Cu1   0.060237136628349   0.047656898326680   0.035612944116479 0
force Cu1   0.003714399022129  -0.001371219544436  -0.016162376559351 0
force Cu1   0.015541868979870  -0.023802420387366   0.017215607446957 0
force Cu1  -0.025359821811567   0.036712310517585   0.019809487437233 0
force Cu1   0.019008724251359   0.057845495356596   0.016496133549825 0
force Cu1   0.061148996133343  -0.044812155812623   0.011105255127794 0
force Cu1   0.000590728663312   0.011370834694271   0.030931079289021 0
force Cu1  -0.000329651410937   0.028618028690891   0.034214421865276 0
force Cu1  -0.005805159185168   0.015291702901946   0.014526660908013 0
force Cu2   0.014721749473235   0.022586896002710  -0.007333280379886 0
force Cu2   0.008170494201431   0.032189351094812   0.003925806106631 0
force Cu2  -0.045313451377706  -0.024058672399940   0.073535699584838 0
force Cu2   0.063683501475595   0.054541191271745  -0.076701041405197 0
force Cu2   0.008889143777654  -0.005707367780308  -0.004064725073705 0
force Cu2   0.011056675260073  -0.005324491225560  -0.014503464415332 0
force Cu2  -0.006286927960648   0.019506216584903   0.011431673936919 0
force Cu2  -0.067695076034387   0.077465844076595   0.026843543416199 0
force Cu2  -0.052850555641697  -0.028862421124320   0.004069186562716 0
force Cu2   0.006240609813483   0.002812211755651  -0.000267435821542 0
force Cu2  -0.008776890496572   0.026141635127018  -0.009661338172488 0
force Cu2   0.022995174353396   0.012050589378820  -0.029774002937885 0
force Cu2   0.023803890305593  -0.005317863171006  -0.036241199956444 0
force Cu2   0.040838821515375   0.009204915765428  -0.041220430364619 0
force Cu2   0.047822124857309  -0.006822816021346  -0.018339830096839 0
force Cu2   0.020124592967118  -0.041273836857598  -0.003607133048164 0
force Cu2   0.032678962884093  -0.040995502288897   0.005223773157522 0
force Cu2   0.007006424589662  -0.028680975019457   0.010057647197788 0
force Cu2   0.002709366046033   0.034244944549322   0.071349983204312 0
force Cu2  -0.022408751077199  -0.029196486282890  -0.005638113839484 0
force Cu2  -0.009301803445315  -0.020099485745762  -0.021075900107106 0
force Cu2  -0.070258171443589  -0.052880417964396   0.064516828688507 0
force Cu2  -0.029844297447396  -0.015081107121876   0.000148246567265 0
force Cu2  -0.009156044348253  -0.010347559979942   0.013974936586338 0
force O   0.003388767068292   0.075914107227959  -0.001952860737790 0
force O   0.002912737537834   0.075111782842153  -0.003449179486334 0
force O  -0.076918191299553   0.141224215562365   0.091515491633655 0
force O  -0.005649923256449   0.076254613532347   0.006304726827013 0
force O   0.004743920877680   0.081389889691670  -0.012780543755485 0
force O   0.002443093843718   0.079033553120193   0.001718950557100 0
force O  -0.001362685570669  -0.084654308131786   0.004517121260748 0
force O   0.004525029044522  -0.081787988038838  -0.003812011082858 0
force O   0.013140008880264  -0.071950910014475  -0.014625663419170 0
force O   0.083642085475061  -0.146751452868203  -0.092455823549021 0
force O   0.002213837363418  -0.078518453109830  -0.003198427234018 0
force O   0.003221084436569  -0.076899085870884  -0.002313792585681 0
force O  -0.010008326801064  -0.083359151534192  -0.002471451525882 0
force O  -0.063533184008727  -0.009889606468516  -0.079824313408366 0
force O  -0.002716492495132  -0.087300398757025   0.002516624033822 0
force O  -0.002250905285782  -0.076574400687675  -0.001261947568849 0
force O  -0.002005922897891  -0.080189966020879   0.003136508085244 0
force O   0.002235319913970  -0.076065605527698   0.004874143935025 0
force O  -0.007042445224660   0.078389940210311   0.008961708622511 0
force O   0.002393538325522   0.076700023326712  -0.006259171858584 0
force O   0.001487249861062   0.080017878194318  -0.001157782430273 0
force O  -0.015058026495352   0.072140574825288  -0.004107809061940 0
force O  -0.003884243551687   0.081038826956483   0.002697532689920 0
force O  -0.001938882584684   0.078574565030484   0.003301440632501 0
force O   0.002957670651444  -0.077170499289283  -0.002260369912240 0
force O   0.007785528230256  -0.085863274979662  -0.000601380207463 0
force O   0.007882195041729  -0.075153961921272   0.001117922705272 0
force O   0.007740783545092  -0.074895785175315  -0.009291491844827 0
force O   0.000755084353167  -0.080823000396098  -0.002722984075737 0
force O   0.004513482962262  -0.083447696607941  -0.003905432081189 0
force O   0.001976615271452   0.082250190423755  -0.000530869512703 0
force O   0.004786345034733   0.079305559906617  -0.005031141724008 0
force O  -0.002309500660208   0.074943413251796  -0.003652642471809 0
force O   0.002965549590648   0.082986439546549   0.010156917930486 0
force O  -0.007499913570212   0.093533686094032  -0.007525770963506 0
force O   0.001160808262241   0.076357907037690   0.001316997786307 0
force O  -0.004297223103048   0.084996289401864   0.003577814777404 0
force O  -0.001991596498243   0.075211764917094   0.003156775433329 0
force O   0.004842945120973   0.084765715965111   0.003634078660142 0
force O   0.065571008996506   0.011135192883733   0.079082143335459 0
force O  -0.007785745387353   0.076362971468291  -0.000697342403887 0
force O  -0.002188068871081   0.081387307813860   0.001486695097296 0
force O   0.003305846904750  -0.078226284516909   0.002623346622833 0
force O  -0.003605952723331  -0.074761601468273   0.011987424778776 0
force O  -0.012077050127975  -0.073399961293570   0.013878580163776 0
force O  -0.000592176360194  -0.082454177599148  -0.003643887360127 0
force O  -0.003377519876675  -0.080642673769255   0.003997169526618 0
force O  -0.004096226811532  -0.078614871018276   0.001328525562911 0
force Li   0.001246640932753   0.000721381129718  -0.000637626461003 0

# Energy components:
   Eewald =    -5785.2940528449325939
       EH =     4062.3617042652481359
     Eloc =   -10628.3737457170300331
      Enl =     1842.2477538585876573
      Exc =    -1093.0767931015229806
 Exc_core =        5.4737925466831321
       KE =     1323.2445380855942858
        U =        2.3612802237494117
-------------------------------------
     Etot =   -10271.0555226836240763
       TS =       -0.0001756950837086
-------------------------------------
        F =   -10271.0553469885398954

IonicMinimize: Iter:   0  F: -10271.055346988539895  |grad|_K:  0.000e+00  t[s]:  13631.61
IonicMinimize: Converged (|grad|_K<1.000000e-04).

#--- Lowdin population analysis ---
# oxidation-state Cu1 +0.387 +0.403 +0.387 +0.404 +0.387 +0.402 +0.386 +0.388 +0.406 +0.389 +0.389 +0.389 +0.394 +0.397 +0.398 +0.389 +0.393 +0.385 +0.435 +0.395 +0.388 +0.390 +0.388
# magnetic-moments Cu1 +0.581 +0.586 +0.581 +0.586 +0.581 +0.575 +0.580 +0.578 +0.581 +0.582 +0.582 +0.580 +0.588 +0.575 +0.580 +0.582 +0.586 +0.576 +0.589 +0.569 +0.582 +0.581 +0.581
# oxidation-state Cu2 +0.388 +0.391 +0.391 +0.392 +0.388 +0.391 +0.388 +0.399 +0.434 +0.385 +0.391 +0.388 +0.389 +0.387 +0.396 +0.382 +0.386 +0.390 +0.405 +0.389 +0.386 +0.404 +0.390 +0.389
# magnetic-moments Cu2 -0.579 -0.583 -0.589 -0.589 -0.580 -0.582 -0.583 -0.572 -0.585 -0.575 -0.583 -0.581 -0.582 -0.583 -0.583 -0.573 -0.578 -0.583 -0.580 -0.581 -0.576 -0.579 -0.582 -0.581
# oxidation-state O -0.332 -0.330 -0.355 -0.334 -0.329 -0.333 -0.329 -0.333 -0.332 -0.359 -0.332 -0.330 -0.334 -0.364 -0.324 -0.330 -0.332 -0.332 -0.332 -0.331 -0.330 -0.329 -0.332 -0.333 -0.334 -0.333 -0.327 -0.327 -0.332 -0.332 -0.332 -0.332 -0.327 -0.326 -0.330 -0.334 -0.324 -0.330 -0.334 -0.365 -0.333 -0.332 -0.330 -0.330 -0.328 -0.333 -0.332 -0.333
# magnetic-moments O -0.166 -0.171 -0.300 -0.155 -0.165 -0.164 +0.161 +0.166 +0.180 +0.075 +0.170 +0.167 +0.156 +0.094 +0.171 +0.168 +0.165 +0.166 -0.185 -0.162 -0.166 -0.177 -0.164 -0.166 -0.158 -0.165 -0.172 -0.173 -0.167 -0.172 +0.165 +0.170 +0.168 +0.169 +0.155 +0.157 +0.175 +0.169 +0.158 +0.087 +0.166 +0.164 -0.168 -0.173 -0.191 -0.157 -0.166 -0.164
# oxidation-state Li -0.107
# magnetic-moments Li -0.001


Dumping 'cuo.fillings' ... done
Dumping 'cuo.wfns' ... done
Dumping 'cuo.d_tot' ... done
Calculating charged defect correction:
	EmodelIsolated: 0.01567193
	EmodelPeriodic: 0.01154013
	DeltaV:         0.00729813 (average over 771958 grid points)
	Net correction: 0.01142994 (= EmodelIsolated - EmodelPeriodic + q deltaV)
	Writing cuo.chargedDefectDeltaV (spherically-averaged; plot to check DeltaV manually) ... done.
	Writing cuo.chargedDefectDeltaVx (planarly-averaged normal to lattice direction# 0) ... done.
	Writing cuo.chargedDefectDeltaVy (planarly-averaged normal to lattice direction# 1) ... done.
	Writing cuo.chargedDefectDeltaVz (planarly-averaged normal to lattice direction# 2) ... done.
Dumping 'cuo.eigenvals' ... done
Dumping 'cuo.eigStats' ... 
	eMin: -3.693254 at state 5 ( [ +0.333333 +0.000000 +0.000000 ] spin 1 )
	HOMO: +0.401211 at state 16 ( [ +0.000000 +0.333333 +0.000000 ] spin -1 )
	mu  : +0.401258
	LUMO: +0.401619 at state 14 ( [ +0.000000 +0.000000 +0.000000 ] spin -1 )
	eMax: +1.174386 at state 7 ( [ +0.333333 +0.000000 -0.333333 ] spin 1 )
	HOMO-LUMO gap: +0.000408
	Optical gap  : +0.003554 at state 14 ( [ +0.000000 +0.000000 +0.000000 ] spin -1 )
Dumping 'cuo.Ecomponents' ... done
End date and time: Wed Jan 31 04:21:00 2018  (Duration: 0-3:48:12.74)
Done!

PROFILER:             augmentDensityGrid     2.530689 +/-     1.444632 s,  344 calls,    870.557151 s total
PROFILER:         augmentDensityGridGrad     4.322172 +/-     3.123770 s,  208 calls,    899.011834 s total
PROFILER:        augmentDensitySpherical     0.021936 +/-     0.014555 s,  688 calls,     15.092303 s total
PROFILER:    augmentDensitySphericalGrad     0.024089 +/-     0.014987 s,  656 calls,     15.802335 s total
PROFILER:                 augmentOverlap     3.135675 +/-     1.839085 s,  504 calls,   1580.380305 s total
PROFILER:                     changeGrid     0.008048 +/-     0.001133 s,  496 calls,      3.991614 s total
PROFILER:        ColumnBundle::randomize     0.262967 +/-     0.011733 s,    2 calls,      0.525934 s total
PROFILER:                     diagouterI     8.101891 +/-     0.576004 s,  172 calls,   1393.525176 s total
PROFILER:              EdensityAndVscloc     0.599389 +/-     0.123482 s,  101 calls,     60.538291 s total
PROFILER:                     EnlAndGrad     0.141209 +/-     0.092646 s,  512 calls,     72.298895 s total
PROFILER:            ExCorrCommunication     0.048949 +/-     0.057837 s,  619 calls,     30.299441 s total
PROFILER:               ExCorrFunctional     0.077851 +/-     0.012606 s,  105 calls,      8.174331 s total
PROFILER:                    ExCorrTotal     0.457185 +/-     0.127993 s,  105 calls,     48.004476 s total
PROFILER:                   Idag_DiagV_I    14.296367 +/-     1.631248 s,  162 calls,   2316.011487 s total
PROFILER:                    inv(matrix)     0.000050 +/-     0.000031 s,   14 calls,      0.000701 s total
PROFILER:            matrix::diagonalize     0.310459 +/-     1.054255 s, 1851 calls,    574.660122 s total
PROFILER:     RadialFunctionR::transform     0.020332 +/-     0.012346 s,  181 calls,      3.680071 s total
PROFILER:                    reduceKmesh     0.074574 +/-     0.000000 s,    1 calls,      0.074574 s total
PROFILER:                   rhoAtom_calc     0.989250 +/-     0.991557 s,  340 calls,    336.345153 s total
PROFILER:                   rhoAtom_grad     0.685112 +/-     0.692468 s,  632 calls,    432.990853 s total
PROFILER:               WavefunctionDrag    41.906361 +/-     0.000000 s,    1 calls,     41.906361 s total
PROFILER:                            Y*M     1.839839 +/-     1.270014 s, 1944 calls,   3576.646078 s total
PROFILER:                          Y1^Y2     1.621875 +/-     1.294748 s, 1590 calls,   2578.780585 s total

MEMUSAGE:                   ColumnBundle     5.530509 GB
MEMUSAGE:        complexScalarFieldTilde     0.020599 GB
MEMUSAGE:                    IndexArrays     0.016297 GB
MEMUSAGE:                         matrix     0.647691 GB
MEMUSAGE:                           misc     0.035916 GB
MEMUSAGE:                     RealKernel     0.008812 GB
MEMUSAGE:                    ScalarField     0.536407 GB
MEMUSAGE:               ScalarFieldTilde     0.088120 GB
MEMUSAGE:                          Total     6.181595 GB
