
     Program PWSCF v.6.1 (svn rev. 13369) starts on  9Mar2020 at 17:19:29 

     This program is part of the open-source Quantum ESPRESSO suite
     for quantum simulation of materials; please cite
         "P. Giannozzi et al., J. Phys.:Condens. Matter 21 395502 (2009);
          URL http://www.quantum-espresso.org", 
     in publications or presentations arising from this work. More details at
     http://www.quantum-espresso.org/quote

     Parallel version (MPI), running on   360 processors
     K-points division:     npool     =      10
     R & G space division:  proc/nbgrp/npool/nimage =      36
     Reading input from relax.in

     Current dimensions of program PWSCF are:
     Max number of different atomic species (ntypx) = 10
     Max number of k-points (npk) =  40000
     Max angular momentum in pseudopotentials (lmaxx) =  3

     Subspace diagonalization in iterative solution of the eigenvalue problem:
     one sub-group per band group will be used
     scalapack distributed-memory algorithm (size of sub-group:  6*  6 procs)

 
     Parallelization info
     --------------------
     sticks:   dense  smooth     PW     G-vecs:    dense   smooth      PW
     Min         422     422    109                35974    35974    4737
     Max         423     423    110                35979    35979    4740
     Sum       15199   15199   3931              1295129  1295129  170579
 


     bravais-lattice index     =            0
     lattice parameter (alat)  =      33.2346  a.u.
     unit-cell volume          =   27114.5224 (a.u.)^3
     number of atoms/cell      =           97
     number of atomic types    =            3
     number of electrons       =       395.00
     number of Kohn-Sham states=          220
     kinetic-energy cutoff     =      50.0000  Ry
     charge density cutoff     =     200.0000  Ry
     convergence threshold     =      1.0E-08
     mixing beta               =       0.7000
     number of iterations used =            8  plain     mixing
     Exchange-correlation      = PBE ( 1  4  3  4 0 0)
     nstep                     =           50


     celldm(1)=  33.234606  celldm(2)=   0.000000  celldm(3)=   0.000000
     celldm(4)=   0.000000  celldm(5)=   0.000000  celldm(6)=   0.000000

     crystal axes: (cart. coord. in units of alat)
               a(1) = (   1.000000   0.000000   0.000000 )  
               a(2) = (  -0.500000   0.866026   0.000000 )  
               a(3) = (   0.000000   0.000000   0.852903 )  

     reciprocal axes: (cart. coord. in units 2 pi/alat)
               b(1) = (  1.000000  0.577350  0.000000 )  
               b(2) = (  0.000000  1.154700  0.000000 )  
               b(3) = (  0.000000  0.000000  1.172466 )  


     PseudoPot. # 1 for B  read from file:
     /g/g13/smart8/Pseudo/B_ONCV_PBE-1.0.upf
     MD5 check sum: a9fd2462c33df863cd3ce8a66ea40380
     Pseudo is Norm-conserving, Zval =  3.0
     Generated using ONCVPSP code by D. R. Hamann
     Using radial grid of 1534 points,  4 beta functions with: 
                l(1) =   0
                l(2) =   0
                l(3) =   1
                l(4) =   1

     PseudoPot. # 2 for N  read from file:
     /g/g13/smart8/Pseudo/N_ONCV_PBE-1.0.upf
     MD5 check sum: 09890da6b2972017450f7114a6086fad
     Pseudo is Norm-conserving, Zval =  5.0
     Generated using ONCVPSP code by D. R. Hamann
     Using radial grid of 1058 points,  4 beta functions with: 
                l(1) =   0
                l(2) =   0
                l(3) =   1
                l(4) =   1

     PseudoPot. # 3 for Ti read from file:
     /g/g13/smart8/Pseudo/Ti_ONCV_PBE-1.0.upf
     MD5 check sum: 4c1f1eb84d597b0c1f6d2d217b0e28bb
     Pseudo is Norm-conserving, Zval = 12.0
     Generated using ONCVPSP code by D. R. Hamann
     Using radial grid of 1586 points,  6 beta functions with: 
                l(1) =   0
                l(2) =   0
                l(3) =   1
                l(4) =   1
                l(5) =   2
                l(6) =   2

     atomic species   valence    mass     pseudopotential
        B              3.00    10.81100     B ( 1.00)
        N              5.00    14.00674     N ( 1.00)
        Ti            12.00    47.86700     Ti( 1.00)

     Starting magnetic structure 
     atomic species   magnetization
        B            0.000
        N            0.000
        Ti           1.000

     No symmetry found


                                    s                        frac. trans.

      isym =  1     identity                                     

 cryst.   s( 1) = (     1          0          0      )
                  (     0          1          0      )
                  (     0          0          1      )

 cart.    s( 1) = (  1.0000000  0.0000000  0.0000000 )
                  (  0.0000000  1.0000000  0.0000000 )
                  (  0.0000000  0.0000000  1.0000000 )


   Cartesian axes

     site n.     atom                  positions (alat units)
         1           B   tau(   1) = (  -0.0000160   0.0818508   0.4226760  )
         2           B   tau(   2) = (  -0.0716281   0.2056324   0.4224293  )
         3           B   tau(   3) = (  -0.1431039   0.3294099   0.4228965  )
         4           B   tau(   4) = (  -0.2143649   0.4531735   0.4230184  )
         5           B   tau(   5) = (  -0.2855557   0.5768472   0.4231833  )
         6           B   tau(   6) = (  -0.3569625   0.7005588   0.4236809  )
         7           B   tau(   7) = (  -0.4284397   0.8242633   0.4233213  )
         8           B   tau(   8) = (   0.1430028   0.0820379   0.4245792  )
         9           B   tau(   9) = (   0.0710703   0.2050893   0.4258824  )
        10           B   tau(  10) = (  -0.0004588   0.3291844   0.4275681  )
        11           B   tau(  11) = (  -0.0715946   0.4530109   0.4269725  )
        12           B   tau(  12) = (  -0.1425255   0.5767849   0.4250112  )
        13           B   tau(  13) = (  -0.2140556   0.7005062   0.4234263  )
        14           B   tau(  14) = (  -0.2855717   0.8242671   0.4234512  )
        15           B   tau(  15) = (   0.2857885   0.0819868   0.4247814  )
        16           B   tau(  16) = (   0.2145671   0.2058703   0.4298066  )
        17           B   tau(  17) = (   0.1410691   0.3284910   0.4372550  )
        18           B   tau(  18) = (   0.0712103   0.4522207   0.4388877  )
        19           B   tau(  19) = (   0.0006589   0.5765351   0.4306174  )
        20           B   tau(  20) = (  -0.0711160   0.7004401   0.4250604  )
        21           B   tau(  21) = (  -0.1427243   0.8242490   0.4231941  )
        22           B   tau(  22) = (   0.4284930   0.0821847   0.4230602  )
        23           B   tau(  23) = (   0.3569612   0.2059795   0.4268575  )
        24           B   tau(  24) = (   0.2869957   0.3307265   0.4390811  )
        25           B   tau(  25) = (   0.1435954   0.5774957   0.4380065  )
        26           B   tau(  26) = (   0.0715395   0.7008436   0.4268417  )
        27           B   tau(  27) = (  -0.0000100   0.8244484   0.4230671  )
        28           B   tau(  28) = (   0.5713183   0.0821534   0.4219979  )
        29           B   tau(  29) = (   0.4998873   0.2057712   0.4231563  )
        30           B   tau(  30) = (   0.4288241   0.3293244   0.4284747  )
        31           B   tau(  31) = (   0.3567607   0.4514413   0.4385687  )
        32           B   tau(  32) = (   0.2857055   0.5789042   0.4363513  )
        33           B   tau(  33) = (   0.2143415   0.7011477   0.4272667  )
        34           B   tau(  34) = (   0.1427897   0.8245690   0.4229991  )
        35           B   tau(  35) = (   0.7141896   0.0821598   0.4214225  )
        36           B   tau(  36) = (   0.6427125   0.2058634   0.4214453  )
        37           B   tau(  37) = (   0.5713629   0.3295931   0.4230924  )
        38           B   tau(  38) = (   0.4997759   0.4532563   0.4268078  )
        39           B   tau(  39) = (   0.4286833   0.5766371   0.4300134  )
        40           B   tau(  40) = (   0.3575943   0.7013071   0.4262450  )
        41           B   tau(  41) = (   0.2857613   0.8245794   0.4227566  )
        42           B   tau(  42) = (   0.8571064   0.0820802   0.4215836  )
        43           B   tau(  43) = (   0.7855390   0.2057771   0.4212345  )
        44           B   tau(  44) = (   0.7141368   0.3295474   0.4217692  )
        45           B   tau(  45) = (   0.6427259   0.4532396   0.4230030  )
        46           B   tau(  46) = (   0.5715256   0.5769225   0.4250403  )
        47           B   tau(  47) = (   0.5001074   0.7005161   0.4251757  )
        48           B   tau(  48) = (   0.4287766   0.8245102   0.4230741  )
        49           N   tau(  49) = (   0.0715648   0.0407300   0.4231879  )
        50           N   tau(  50) = (  -0.0002471   0.1641035   0.4229476  )
        51           N   tau(  51) = (  -0.0718441   0.2880028   0.4235663  )
        52           N   tau(  52) = (  -0.1431484   0.4118615   0.4237117  )
        53           N   tau(  53) = (  -0.2141866   0.5356366   0.4233956  )
        54           N   tau(  54) = (  -0.2855752   0.6593142   0.4233005  )
        55           N   tau(  55) = (  -0.3569969   0.7830303   0.4234673  )
        56           N   tau(  56) = (   0.2144170   0.0407730   0.4241659  )
        57           N   tau(  57) = (   0.1430796   0.1645057   0.4268472  )
        58           N   tau(  58) = (   0.0705353   0.2869157   0.4288746  )
        59           N   tau(  59) = (  -0.0006914   0.4115926   0.4302216  )
        60           N   tau(  60) = (  -0.0712427   0.5355455   0.4277288  )
        61           N   tau(  61) = (  -0.1426734   0.6593105   0.4243010  )
        62           N   tau(  62) = (  -0.2141699   0.7830400   0.4232301  )
        63           N   tau(  63) = (   0.3571734   0.0408390   0.4233950  )
        64           N   tau(  64) = (   0.2857981   0.1646314   0.4272941  )
        65           N   tau(  65) = (   0.2150194   0.2888108   0.4358265  )
        66           N   tau(  66) = (   0.1393481   0.4084123   0.4483693  )
        67           N   tau(  67) = (   0.0718791   0.5353866   0.4370244  )
        68           N   tau(  68) = (   0.0002303   0.6593020   0.4278181  )
        69           N   tau(  69) = (  -0.0713379   0.7830643   0.4234783  )
        70           N   tau(  70) = (   0.4998760   0.0410037   0.4224140  )
        71           N   tau(  71) = (   0.4283548   0.1648035   0.4237879  )
        72           N   tau(  72) = (   0.3569644   0.2888425   0.4305683  )
        73           N   tau(  73) = (   0.2156259   0.5402509   0.4464696  )
        74           N   tau(  74) = (   0.1428638   0.6601140   0.4296684  )
        75           N   tau(  75) = (   0.0713695   0.7833862   0.4236546  )
        76           N   tau(  76) = (   0.6427313   0.0410483   0.4219989  )
        77           N   tau(  77) = (   0.5712463   0.1646687   0.4218939  )
        78           N   tau(  78) = (   0.4998551   0.2883247   0.4241655  )
        79           N   tau(  79) = (   0.4280103   0.4118088   0.4303092  )
        80           N   tau(  80) = (   0.3570593   0.5347232   0.4355297  )
        81           N   tau(  81) = (   0.2864627   0.6608305   0.4286104  )
        82           N   tau(  82) = (   0.2143050   0.7835756   0.4236679  )
        83           N   tau(  83) = (   0.7856722   0.0409915   0.4215459  )
        84           N   tau(  84) = (   0.7140801   0.1646352   0.4210770  )
        85           N   tau(  85) = (   0.6426464   0.2883576   0.4216967  )
        86           N   tau(  86) = (   0.5711262   0.4120331   0.4238244  )
        87           N   tau(  87) = (   0.4999860   0.5355664   0.4274954  )
        88           N   tau(  88) = (   0.4287399   0.6592221   0.4274551  )
        89           N   tau(  89) = (   0.3574396   0.7835628   0.4235051  )
        90           N   tau(  90) = (   0.9285938   0.0408223   0.4223016  )
        91           N   tau(  91) = (   0.8569382   0.1644862   0.4213069  )
        92           N   tau(  92) = (   0.7854143   0.2882156   0.4216889  )
        93           N   tau(  93) = (   0.7140668   0.4119997   0.4222781  )
        94           N   tau(  94) = (   0.6428366   0.5356671   0.4233796  )
        95           N   tau(  95) = (   0.5715449   0.6593219   0.4246493  )
        96           N   tau(  96) = (   0.5001365   0.7830219   0.4236598  )
        97           Ti  tau(  97) = (   0.2348136   0.4418291   0.4915911  )

   Crystallographic axes

     site n.     atom                  positions (cryst. coord.)
         1           B   tau(   1) = (  0.0472405  0.0945131  0.4955734  )
         2           B   tau(   2) = (  0.0470938  0.2374438  0.4952841  )
         3           B   tau(   3) = (  0.0470809  0.3803696  0.4958319  )
         4           B   tau(   4) = (  0.0472749  0.5232796  0.4959749  )
         5           B   tau(   5) = (  0.0474871  0.6660856  0.4961682  )
         6           B   tau(   6) = (  0.0475051  0.8089353  0.4967517  )
         7           B   tau(   7) = (  0.0474488  0.9517770  0.4963300  )
         8           B   tau(   8) = (  0.1903673  0.0947291  0.4978049  )
         9           B   tau(   9) = (  0.1894786  0.2368167  0.4993328  )
        10           B   tau(  10) = (  0.1895959  0.3801093  0.5013093  )
        11           B   tau(  11) = (  0.1899513  0.5230918  0.5006109  )
        12           B   tau(  12) = (  0.1904813  0.6660137  0.4983114  )
        13           B   tau(  13) = (  0.1903817  0.8088746  0.4964531  )
        14           B   tau(  14) = (  0.1903190  0.9517814  0.4964823  )
        15           B   tau(  15) = (  0.3331236  0.0946702  0.4980419  )
        16           B   tau(  16) = (  0.3334263  0.2377185  0.5039338  )
        17           B   tau(  17) = (  0.3307234  0.3793086  0.5126669  )
        18           B   tau(  18) = (  0.3323000  0.5221793  0.5145811  )
        19           B   tau(  19) = (  0.3335216  0.6657252  0.5048844  )
        20           B   tau(  20) = (  0.3332831  0.8087983  0.4983690  )
        21           B   tau(  21) = (  0.3331560  0.9517605  0.4961809  )
        22           B   tau(  22) = (  0.4759424  0.0948987  0.4960238  )
        23           B   tau(  23) = (  0.4758834  0.2378446  0.5004760  )
        24           B   tau(  24) = (  0.4779406  0.3818899  0.5148079  )
        25           B   tau(  25) = (  0.4770126  0.6668344  0.5135479  )
        26           B   tau(  26) = (  0.4761716  0.8092643  0.5004575  )
        27           B   tau(  27) = (  0.4759853  0.9519908  0.4960319  )
        28           B   tau(  28) = (  0.6187496  0.0948625  0.4947784  )
        29           B   tau(  29) = (  0.6186893  0.2376041  0.4961365  )
        30           B   tau(  30) = (  0.6189596  0.3802709  0.5023722  )
        31           B   tau(  31) = (  0.6174003  0.5212793  0.5142070  )
        32           B   tau(  32) = (  0.6199359  0.6684608  0.5116072  )
        33           B   tau(  33) = (  0.6191492  0.8096154  0.5009558  )
        34           B   tau(  34) = (  0.6188547  0.9521300  0.4959522  )
        35           B   tau(  35) = (  0.7616246  0.0948700  0.4941038  )
        36           B   tau(  36) = (  0.7615678  0.2377105  0.4941304  )
        37           B   tau(  37) = (  0.7616535  0.3805812  0.4960616  )
        38           B   tau(  38) = (  0.7614635  0.5233751  0.5004178  )
        39           B   tau(  39) = (  0.7616048  0.6658430  0.5041762  )
        40           B   tau(  40) = (  0.7624940  0.8097995  0.4997579  )
        41           B   tau(  41) = (  0.7618323  0.9521420  0.4956679  )
        42           B   tau(  42) = (  0.9044954  0.0947780  0.4942926  )
        43           B   tau(  43) = (  0.9043444  0.2376108  0.4938833  )
        44           B   tau(  44) = (  0.9044010  0.3805285  0.4945102  )
        45           B   tau(  45) = (  0.9044039  0.5233559  0.4959568  )
        46           B   tau(  46) = (  0.9046118  0.6661726  0.4983455  )
        47           B   tau(  47) = (  0.9045504  0.8088861  0.4985042  )
        48           B   tau(  48) = (  0.9048077  0.9520621  0.4960401  )
        49           N   tau(  49) = (  0.0950802  0.0470309  0.4961736  )
        50           N   tau(  50) = (  0.0944981  0.1894904  0.4958918  )
        51           N   tau(  51) = (  0.0944343  0.3325569  0.4966172  )
        52           N   tau(  52) = (  0.0946399  0.4755766  0.4967877  )
        53           N   tau(  53) = (  0.0950633  0.6184996  0.4964172  )
        54           N   tau(  54) = (  0.0950799  0.7613102  0.4963057  )
        55           N   tau(  55) = (  0.0950857  0.9041652  0.4965012  )
        56           N   tau(  56) = (  0.2379573  0.0470806  0.4973203  )
        57           N   tau(  57) = (  0.2380570  0.1899548  0.5004640  )
        58           N   tau(  58) = (  0.2361860  0.3313016  0.5028411  )
        59           N   tau(  59) = (  0.2369417  0.4752661  0.5044204  )
        60           N   tau(  60) = (  0.2379545  0.6183944  0.5014976  )
        61           N   tau(  61) = (  0.2379795  0.7613060  0.4974787  )
        62           N   tau(  62) = (  0.2379184  0.9041764  0.4962231  )
        63           N   tau(  63) = (  0.3807518  0.0471568  0.4964164  )
        64           N   tau(  64) = (  0.3808480  0.1900999  0.5009879  )
        65           N   tau(  65) = (  0.3817644  0.3334899  0.5109920  )
        66           N   tau(  66) = (  0.3751450  0.4715937  0.5256979  )
        67           N   tau(  67) = (  0.3809846  0.6182110  0.5123965  )
        68           N   tau(  68) = (  0.3808783  0.7612961  0.5016023  )
        69           N   tau(  69) = (  0.3807643  0.9042045  0.4965141  )
        70           N   tau(  70) = (  0.5235495  0.0473469  0.4952662  )
        71           N   tau(  71) = (  0.5235041  0.1902986  0.4968770  )
        72           N   tau(  72) = (  0.5237277  0.3335265  0.5048269  )
        73           N   tau(  73) = (  0.5275398  0.6238278  0.5234706  )
        74           N   tau(  74) = (  0.5239807  0.7622338  0.5037718  )
        75           N   tau(  75) = (  0.5236576  0.9045761  0.4967208  )
        76           N   tau(  76) = (  0.6664306  0.0473985  0.4947796  )
        77           N   tau(  77) = (  0.6663177  0.1901430  0.4946564  )
        78           N   tau(  78) = (  0.6663194  0.3329286  0.4973198  )
        79           N   tau(  79) = (  0.6657681  0.4755157  0.5045231  )
        80           N   tau(  80) = (  0.6657818  0.6174450  0.5106439  )
        81           N   tau(  81) = (  0.6679932  0.7630611  0.5025313  )
        82           N   tau(  82) = (  0.6667024  0.9047949  0.4967364  )
        83           N   tau(  83) = (  0.8093386  0.0473329  0.4942484  )
        84           N   tau(  84) = (  0.8091323  0.1901043  0.4936986  )
        85           N   tau(  85) = (  0.8091297  0.3329666  0.4944252  )
        86           N   tau(  86) = (  0.8090136  0.4757747  0.4969198  )
        87           N   tau(  87) = (  0.8091953  0.6184186  0.5012240  )
        88           N   tau(  88) = (  0.8093419  0.7612039  0.5011768  )
        89           N   tau(  89) = (  0.8098297  0.9047801  0.4965454  )
        90           N   tau(  90) = (  0.9521625  0.0471375  0.4951344  )
        91           N   tau(  91) = (  0.9519044  0.1899323  0.4939681  )
        92           N   tau(  92) = (  0.9518156  0.3328026  0.4944161  )
        93           N   tau(  93) = (  0.9519349  0.4757362  0.4951068  )
        94           N   tau(  94) = (  0.9521041  0.6185349  0.4963984  )
        95           N   tau(  95) = (  0.9522044  0.7613191  0.4978871  )
        96           N   tau(  96) = (  0.9522142  0.9041555  0.4967269  )
        97           Ti  tau(  97) = (  0.4899037  0.5101801  0.5763740  )

     number of k points=     5  Marzari-Vanderbilt smearing, width (Ry)=  0.0010
                       cart. coord. in units 2pi/alat
        k(    1) = (   0.0000000   0.0000000   0.0000000), wk =   0.1111111
        k(    2) = (   0.0000000   0.3849001   0.0000000), wk =   0.2222222
        k(    3) = (   0.3333333   0.5773501   0.0000000), wk =   0.2222222
        k(    4) = (  -0.3333333   0.1924500   0.0000000), wk =   0.2222222
        k(    5) = (   0.3333333   0.1924500   0.0000000), wk =   0.2222222

                       cryst. coord.
        k(    1) = (   0.0000000   0.0000000   0.0000000), wk =   0.1111111
        k(    2) = (   0.0000000   0.3333333   0.0000000), wk =   0.2222222
        k(    3) = (   0.3333333   0.3333333   0.0000000), wk =   0.2222222
        k(    4) = (  -0.3333333   0.3333333   0.0000000), wk =   0.2222222
        k(    5) = (   0.3333333  -0.0000000   0.0000000), wk =   0.2222222

     Dense  grid:  1295129 G-vectors     FFT dimensions: ( 150, 150, 128)

     Estimated max dynamical RAM per process >     168.78MB

     Estimated total allocated dynamical RAM >   60759.06MB
     Generating pointlists ...
     new r_m :   0.0333 (alat units)  1.1059 (a.u.) for type    1
     new r_m :   0.0333 (alat units)  1.1059 (a.u.) for type    2
     new r_m :   0.0454 (alat units)  1.5075 (a.u.) for type    3

     Initial potential from superposition of free atoms
     Check: negative starting charge=(component1):   -0.003659
     Check: negative starting charge=(component2):   -0.003752

     starting charge  395.98610, renormalised to  395.00000

     negative rho (up, down):  3.650E-03 3.742E-03
     Starting wfc are  394 randomized atomic wfcs

     total cpu time spent up to now is       10.1 secs

     per-process dynamical memory:   148.0 Mb

     Self-consistent Calculation

     iteration #  1     ecut=    50.00 Ry     beta=0.70
     Davidson diagonalization with overlap
     ethr =  1.00E-02,  avg # of iterations =  2.0

     negative rho (up, down):  6.239E-04 6.417E-04

     total cpu time spent up to now is       18.3 secs

     total energy              =   -1342.15682164 Ry
     Harris-Foulkes estimate   =   -1352.71483140 Ry
     estimated scf accuracy    <      22.50313141 Ry

     total magnetization       =     1.00 Bohr mag/cell
     absolute magnetization    =     2.09 Bohr mag/cell

     iteration #  2     ecut=    50.00 Ry     beta=0.70
     Davidson diagonalization with overlap
     ethr =  5.70E-03,  avg # of iterations =  4.5

     negative rho (up, down):  4.225E-04 4.334E-04

     total cpu time spent up to now is       28.5 secs

     total energy              =   -1332.64078850 Ry
     Harris-Foulkes estimate   =   -1357.23994125 Ry
     estimated scf accuracy    <      65.98462517 Ry

     total magnetization       =     1.00 Bohr mag/cell
     absolute magnetization    =     1.82 Bohr mag/cell

     iteration #  3     ecut=    50.00 Ry     beta=0.70
     Davidson diagonalization with overlap
     ethr =  5.70E-03,  avg # of iterations =  5.0

     negative rho (up, down):  2.671E-04 2.840E-04

     total cpu time spent up to now is       36.0 secs

     total energy              =   -1341.86788686 Ry
     Harris-Foulkes estimate   =   -1357.69944674 Ry
     estimated scf accuracy    <      62.10419282 Ry

     total magnetization       =     0.56 Bohr mag/cell
     absolute magnetization    =     0.92 Bohr mag/cell

     iteration #  4     ecut=    50.00 Ry     beta=0.70
     Davidson diagonalization with overlap
     ethr =  5.70E-03,  avg # of iterations =  4.9

     negative rho (up, down):  1.175E-04 1.296E-04

     total cpu time spent up to now is       44.7 secs

     total energy              =   -1349.79360400 Ry
     Harris-Foulkes estimate   =   -1352.45271737 Ry
     estimated scf accuracy    <       7.76082217 Ry

     total magnetization       =     0.65 Bohr mag/cell
     absolute magnetization    =     0.91 Bohr mag/cell

     iteration #  5     ecut=    50.00 Ry     beta=0.70
     Davidson diagonalization with overlap
     ethr =  1.96E-03,  avg # of iterations =  5.8

     negative rho (up, down):  2.516E-05 3.339E-05

     total cpu time spent up to now is       51.9 secs

     total energy              =   -1350.13306341 Ry
     Harris-Foulkes estimate   =   -1350.63806814 Ry
     estimated scf accuracy    <       2.02811877 Ry

     total magnetization       =     1.00 Bohr mag/cell
     absolute magnetization    =     1.23 Bohr mag/cell

     iteration #  6     ecut=    50.00 Ry     beta=0.70
     Davidson diagonalization with overlap
     ethr =  5.13E-04,  avg # of iterations =  6.9

     negative rho (up, down):  2.001E-07 4.255E-07

     total cpu time spent up to now is       60.2 secs

     total energy              =   -1350.23961640 Ry
     Harris-Foulkes estimate   =   -1350.42629204 Ry
     estimated scf accuracy    <       0.70430952 Ry

     total magnetization       =     1.00 Bohr mag/cell
     absolute magnetization    =     1.23 Bohr mag/cell

     iteration #  7     ecut=    50.00 Ry     beta=0.70
     Davidson diagonalization with overlap
     ethr =  1.78E-04,  avg # of iterations =  5.1

     total cpu time spent up to now is       67.8 secs

     total energy              =   -1350.26285411 Ry
     Harris-Foulkes estimate   =   -1350.30667538 Ry
     estimated scf accuracy    <       0.22996269 Ry

     total magnetization       =     1.00 Bohr mag/cell
     absolute magnetization    =     1.18 Bohr mag/cell

     iteration #  8     ecut=    50.00 Ry     beta=0.70
     Davidson diagonalization with overlap
     ethr =  5.82E-05,  avg # of iterations =  6.7

     total cpu time spent up to now is       75.6 secs

     total energy              =   -1350.25772914 Ry
     Harris-Foulkes estimate   =   -1350.27760092 Ry
     estimated scf accuracy    <       0.09079581 Ry

     total magnetization       =     1.00 Bohr mag/cell
     absolute magnetization    =     1.15 Bohr mag/cell

     iteration #  9     ecut=    50.00 Ry     beta=0.70
     Davidson diagonalization with overlap
     ethr =  2.30E-05,  avg # of iterations =  9.0

     total cpu time spent up to now is       84.0 secs

     total energy              =   -1350.25369305 Ry
     Harris-Foulkes estimate   =   -1350.26317243 Ry
     estimated scf accuracy    <       0.03737437 Ry

     total magnetization       =     1.00 Bohr mag/cell
     absolute magnetization    =     1.14 Bohr mag/cell

     iteration # 10     ecut=    50.00 Ry     beta=0.70
     Davidson diagonalization with overlap
     ethr =  9.46E-06,  avg # of iterations =  9.7

     total cpu time spent up to now is       92.4 secs

     total energy              =   -1350.25206891 Ry
     Harris-Foulkes estimate   =   -1350.25613891 Ry
     estimated scf accuracy    <       0.01302936 Ry

     total magnetization       =     1.00 Bohr mag/cell
     absolute magnetization    =     1.14 Bohr mag/cell

     iteration # 11     ecut=    50.00 Ry     beta=0.70
     Davidson diagonalization with overlap
     ethr =  3.30E-06,  avg # of iterations =  9.8

     total cpu time spent up to now is      101.3 secs

     total energy              =   -1350.25259237 Ry
     Harris-Foulkes estimate   =   -1350.25337271 Ry
     estimated scf accuracy    <       0.00249432 Ry

     total magnetization       =     1.00 Bohr mag/cell
     absolute magnetization    =     1.14 Bohr mag/cell

     iteration # 12     ecut=    50.00 Ry     beta=0.70
     Davidson diagonalization with overlap
     ethr =  6.31E-07,  avg # of iterations =  5.3

     total cpu time spent up to now is      109.2 secs

     total energy              =   -1350.25264645 Ry
     Harris-Foulkes estimate   =   -1350.25286953 Ry
     estimated scf accuracy    <       0.00046450 Ry

     total magnetization       =     1.00 Bohr mag/cell
     absolute magnetization    =     1.14 Bohr mag/cell

     iteration # 13     ecut=    50.00 Ry     beta=0.70
     Davidson diagonalization with overlap
     ethr =  1.18E-07,  avg # of iterations =  8.1

     total cpu time spent up to now is      118.6 secs

     total energy              =   -1350.25277821 Ry
     Harris-Foulkes estimate   =   -1350.25279467 Ry
     estimated scf accuracy    <       0.00004393 Ry

     total magnetization       =     1.00 Bohr mag/cell
     absolute magnetization    =     1.14 Bohr mag/cell

     iteration # 14     ecut=    50.00 Ry     beta=0.70
     Davidson diagonalization with overlap
     ethr =  1.11E-08,  avg # of iterations =  3.0

     total cpu time spent up to now is      126.2 secs

     total energy              =   -1350.25278874 Ry
     Harris-Foulkes estimate   =   -1350.25279119 Ry
     estimated scf accuracy    <       0.00000919 Ry

     total magnetization       =     1.00 Bohr mag/cell
     absolute magnetization    =     1.14 Bohr mag/cell

     iteration # 15     ecut=    50.00 Ry     beta=0.70
     Davidson diagonalization with overlap
     ethr =  2.33E-09,  avg # of iterations =  3.0

     total cpu time spent up to now is      134.0 secs

     total energy              =   -1350.25279095 Ry
     Harris-Foulkes estimate   =   -1350.25279168 Ry
     estimated scf accuracy    <       0.00000243 Ry

     total magnetization       =     1.00 Bohr mag/cell
     absolute magnetization    =     1.14 Bohr mag/cell

     iteration # 16     ecut=    50.00 Ry     beta=0.70
     Davidson diagonalization with overlap
     ethr =  6.14E-10,  avg # of iterations =  2.5

     total cpu time spent up to now is      141.6 secs

     total energy              =   -1350.25279137 Ry
     Harris-Foulkes estimate   =   -1350.25279148 Ry
     estimated scf accuracy    <       0.00000059 Ry

     total magnetization       =     1.00 Bohr mag/cell
     absolute magnetization    =     1.14 Bohr mag/cell

     iteration # 17     ecut=    50.00 Ry     beta=0.70
     Davidson diagonalization with overlap
     ethr =  1.50E-10,  avg # of iterations =  2.6

     total cpu time spent up to now is      149.0 secs

     total energy              =   -1350.25279160 Ry
     Harris-Foulkes estimate   =   -1350.25279152 Ry
     estimated scf accuracy    <       0.00000014 Ry

     total magnetization       =     1.00 Bohr mag/cell
     absolute magnetization    =     1.14 Bohr mag/cell

     iteration # 18     ecut=    50.00 Ry     beta=0.70
     Davidson diagonalization with overlap
     ethr =  3.67E-11,  avg # of iterations =  3.0

     total cpu time spent up to now is      156.8 secs

     total energy              =   -1350.25279169 Ry
     Harris-Foulkes estimate   =   -1350.25279166 Ry
     estimated scf accuracy    <       0.00000007 Ry

     total magnetization       =     1.00 Bohr mag/cell
     absolute magnetization    =     1.14 Bohr mag/cell

     iteration # 19     ecut=    50.00 Ry     beta=0.70
     Davidson diagonalization with overlap
     ethr =  1.88E-11,  avg # of iterations =  3.0

     total cpu time spent up to now is      164.4 secs

     total energy              =   -1350.25279172 Ry
     Harris-Foulkes estimate   =   -1350.25279172 Ry
     estimated scf accuracy    <       0.00000005 Ry

     total magnetization       =     1.00 Bohr mag/cell
     absolute magnetization    =     1.14 Bohr mag/cell

     iteration # 20     ecut=    50.00 Ry     beta=0.70
     Davidson diagonalization with overlap
     ethr =  1.19E-11,  avg # of iterations =  3.6

     total cpu time spent up to now is      172.5 secs

     total energy              =   -1350.25279178 Ry
     Harris-Foulkes estimate   =   -1350.25279178 Ry
     estimated scf accuracy    <       0.00000002 Ry

     total magnetization       =     1.00 Bohr mag/cell
     absolute magnetization    =     1.14 Bohr mag/cell

     iteration # 21     ecut=    50.00 Ry     beta=0.70
     Davidson diagonalization with overlap
     ethr =  4.63E-12,  avg # of iterations =  3.7
 
     Magnetic moment per site:
     atom:    1    charge:    0.8291    magn:   -0.0000    constr:    0.0000
     atom:    2    charge:    0.8268    magn:    0.0000    constr:    0.0000
     atom:    3    charge:    0.8283    magn:    0.0001    constr:    0.0000
     atom:    4    charge:    0.8269    magn:   -0.0000    constr:    0.0000
     atom:    5    charge:    0.8263    magn:    0.0000    constr:    0.0000
     atom:    6    charge:    0.8260    magn:    0.0000    constr:    0.0000
     atom:    7    charge:    0.8260    magn:    0.0000    constr:    0.0000
     atom:    8    charge:    0.8253    magn:    0.0003    constr:    0.0000
     atom:    9    charge:    0.8319    magn:   -0.0001    constr:    0.0000
     atom:   10    charge:    0.8258    magn:    0.0004    constr:    0.0000
     atom:   11    charge:    0.8276    magn:    0.0001    constr:    0.0000
     atom:   12    charge:    0.8257    magn:    0.0000    constr:    0.0000
     atom:   13    charge:    0.8248    magn:    0.0000    constr:    0.0000
     atom:   14    charge:    0.8262    magn:    0.0000    constr:    0.0000
     atom:   15    charge:    0.8252    magn:    0.0001    constr:    0.0000
     atom:   16    charge:    0.8207    magn:    0.0039    constr:    0.0000
     atom:   17    charge:    0.8321    magn:    0.0010    constr:    0.0000
     atom:   18    charge:    0.8210    magn:    0.0024    constr:    0.0000
     atom:   19    charge:    0.8209    magn:   -0.0000    constr:    0.0000
     atom:   20    charge:    0.8253    magn:    0.0000    constr:    0.0000
     atom:   21    charge:    0.8258    magn:    0.0000    constr:    0.0000
     atom:   22    charge:    0.8256    magn:    0.0000    constr:    0.0000
     atom:   23    charge:    0.8257    magn:    0.0006    constr:    0.0000
     atom:   24    charge:    0.7627    magn:    0.0279    constr:    0.0000
     atom:   25    charge:    0.8221    magn:    0.0024    constr:    0.0000
     atom:   26    charge:    0.8275    magn:    0.0001    constr:    0.0000
     atom:   27    charge:    0.8266    magn:   -0.0000    constr:    0.0000
     atom:   28    charge:    0.8265    magn:    0.0000    constr:    0.0000
     atom:   29    charge:    0.8266    magn:    0.0000    constr:    0.0000
     atom:   30    charge:    0.8283    magn:    0.0007    constr:    0.0000
     atom:   31    charge:    0.7627    magn:    0.0284    constr:    0.0000
     atom:   32    charge:    0.8326    magn:    0.0008    constr:    0.0000
     atom:   33    charge:    0.8257    magn:    0.0004    constr:    0.0000
     atom:   34    charge:    0.8271    magn:    0.0001    constr:    0.0000
     atom:   35    charge:    0.8262    magn:    0.0000    constr:    0.0000
     atom:   36    charge:    0.8274    magn:    0.0000    constr:    0.0000
     atom:   37    charge:    0.8267    magn:    0.0000    constr:    0.0000
     atom:   38    charge:    0.8251    magn:    0.0006    constr:    0.0000
     atom:   39    charge:    0.8211    magn:    0.0039    constr:    0.0000
     atom:   40    charge:    0.8319    magn:   -0.0001    constr:    0.0000
     atom:   41    charge:    0.8266    magn:    0.0000    constr:    0.0000
     atom:   42    charge:    0.8267    magn:   -0.0000    constr:    0.0000
     atom:   43    charge:    0.8272    magn:    0.0000    constr:    0.0000
     atom:   44    charge:    0.8270    magn:    0.0000    constr:    0.0000
     atom:   45    charge:    0.8256    magn:    0.0000    constr:    0.0000
     atom:   46    charge:    0.8259    magn:    0.0001    constr:    0.0000
     atom:   47    charge:    0.8263    magn:    0.0003    constr:    0.0000
     atom:   48    charge:    0.8288    magn:   -0.0000    constr:    0.0000
     atom:   49    charge:    2.7537    magn:    0.0001    constr:    0.0000
     atom:   50    charge:    2.7562    magn:   -0.0002    constr:    0.0000
     atom:   51    charge:    2.7550    magn:    0.0001    constr:    0.0000
     atom:   52    charge:    2.7543    magn:   -0.0001    constr:    0.0000
     atom:   53    charge:    2.7531    magn:    0.0001    constr:    0.0000
     atom:   54    charge:    2.7545    magn:   -0.0000    constr:    0.0000
     atom:   55    charge:    2.7530    magn:    0.0000    constr:    0.0000
     atom:   56    charge:    2.7543    magn:    0.0001    constr:    0.0000
     atom:   57    charge:    2.7533    magn:    0.0018    constr:    0.0000
     atom:   58    charge:    2.7574    magn:   -0.0017    constr:    0.0000
     atom:   59    charge:    2.7516    magn:    0.0013    constr:    0.0000
     atom:   60    charge:    2.7511    magn:   -0.0001    constr:    0.0000
     atom:   61    charge:    2.7542    magn:   -0.0002    constr:    0.0000
     atom:   62    charge:    2.7540    magn:   -0.0000    constr:    0.0000
     atom:   63    charge:    2.7560    magn:   -0.0000    constr:    0.0000
     atom:   64    charge:    2.7547    magn:    0.0000    constr:    0.0000
     atom:   65    charge:    2.7276    magn:    0.0221    constr:    0.0000
     atom:   66    charge:    2.7298    magn:   -0.0014    constr:    0.0000
     atom:   67    charge:    2.7423    magn:   -0.0032    constr:    0.0000
     atom:   68    charge:    2.7498    magn:   -0.0001    constr:    0.0000
     atom:   69    charge:    2.7532    magn:    0.0001    constr:    0.0000
     atom:   70    charge:    2.7542    magn:   -0.0001    constr:    0.0000
     atom:   71    charge:    2.7537    magn:   -0.0000    constr:    0.0000
     atom:   72    charge:    2.7490    magn:   -0.0013    constr:    0.0000
     atom:   73    charge:    2.7314    magn:   -0.0015    constr:    0.0000
     atom:   74    charge:    2.7515    magn:    0.0013    constr:    0.0000
     atom:   75    charge:    2.7546    magn:   -0.0001    constr:    0.0000
     atom:   76    charge:    2.7547    magn:    0.0001    constr:    0.0000
     atom:   77    charge:    2.7555    magn:   -0.0001    constr:    0.0000
     atom:   78    charge:    2.7548    magn:   -0.0007    constr:    0.0000
     atom:   79    charge:    2.7490    magn:   -0.0011    constr:    0.0000
     atom:   80    charge:    2.7278    magn:    0.0220    constr:    0.0000
     atom:   81    charge:    2.7578    magn:   -0.0018    constr:    0.0000
     atom:   82    charge:    2.7552    magn:    0.0001    constr:    0.0000
     atom:   83    charge:    2.7555    magn:   -0.0001    constr:    0.0000
     atom:   84    charge:    2.7556    magn:   -0.0001    constr:    0.0000
     atom:   85    charge:    2.7553    magn:   -0.0001    constr:    0.0000
     atom:   86    charge:    2.7537    magn:    0.0000    constr:    0.0000
     atom:   87    charge:    2.7555    magn:    0.0001    constr:    0.0000
     atom:   88    charge:    2.7517    magn:    0.0018    constr:    0.0000
     atom:   89    charge:    2.7556    magn:   -0.0002    constr:    0.0000
     atom:   90    charge:    2.7561    magn:    0.0000    constr:    0.0000
     atom:   91    charge:    2.7562    magn:   -0.0001    constr:    0.0000
     atom:   92    charge:    2.7541    magn:    0.0001    constr:    0.0000
     atom:   93    charge:    2.7540    magn:   -0.0001    constr:    0.0000
     atom:   94    charge:    2.7547    magn:   -0.0000    constr:    0.0000
     atom:   95    charge:    2.7541    magn:    0.0001    constr:    0.0000
     atom:   96    charge:    2.7538    magn:    0.0001    constr:    0.0000
     atom:   97    charge:    8.6171    magn:    0.4450    constr:    0.0000

     total cpu time spent up to now is      180.6 secs

     End of self-consistent calculation

 ------ SPIN UP ------------


          k = 0.0000 0.0000 0.0000 (161811 PWs)   bands (ev):

   -61.1087 -37.5697 -37.4171 -37.4025 -21.5101 -21.2771 -21.1773 -21.0127
   -20.9894 -20.9382 -20.8863 -20.4542 -20.4058 -20.3677 -20.3252 -20.2834
   -20.1001 -20.0230 -19.9881 -19.9841 -19.9362 -19.8845 -19.7258 -19.3016
   -19.2684 -19.2621 -19.1130 -19.0677 -19.0201 -19.0160 -18.9980 -18.9888
   -18.9591 -18.9155 -18.7734 -18.7196 -18.7082 -18.5591 -18.5553 -18.5465
   -18.4482 -18.3697 -18.2307 -18.2268 -18.1772 -18.1423 -18.0311 -18.0261
   -17.9405 -17.9304 -17.9232 -17.9198 -12.7452 -12.5915 -12.5837 -12.4670
   -12.4565 -12.4057 -12.2422 -12.2225 -12.2164 -12.1990 -12.1641 -12.0545
   -11.8781 -11.8574 -11.7635 -11.7413 -11.6141 -11.5735 -11.3783 -11.1668
   -11.1655 -11.1130 -11.0738 -11.0597 -11.0458 -11.0006 -10.9755 -10.9694
   -10.9023 -10.8058 -10.5529 -10.3612 -10.3315 -10.3106 -10.2619 -10.1712
    -9.8635  -9.7626  -9.7076  -9.6746  -9.6516  -9.3417  -9.1758  -9.1460
    -9.0621  -9.0581  -8.9344  -8.8920  -8.8574  -8.7715  -8.7543  -8.7393
    -8.6992  -8.6779  -8.6544  -8.6347  -8.6301  -8.6073  -8.5909  -8.5008
    -8.4953  -8.4719  -8.4710  -8.4685  -8.4614  -8.4389  -8.4012  -8.3844
    -8.3595  -8.2992  -8.2325  -8.0906  -7.9531  -7.8434  -7.8031  -7.8004
    -7.7778  -7.6421  -7.6143  -7.5702  -7.5638  -7.4817  -7.4785  -7.4735
    -7.3892  -7.3663  -7.2746  -7.1560  -7.1428  -7.1021  -7.0746  -7.0570
    -7.0479  -7.0359  -7.0263  -7.0078  -7.0063  -6.9934  -6.9861  -6.9458
    -6.9372  -6.8152  -6.7740  -6.7012  -6.6493  -6.5835  -6.5493  -6.0645
    -6.0208  -6.0142  -5.9347  -5.9060  -5.8831  -5.8796  -5.8701  -5.7948
    -5.7324  -5.7267  -5.7190  -5.6634  -5.6377  -5.6309  -5.6124  -5.6066
    -5.5943  -5.3531  -5.2437  -5.2084  -5.1853  -5.1595  -5.0153  -5.0094
    -5.0015  -4.8476  -4.7496  -4.4552  -4.4313  -4.4305  -4.4064  -4.1983
    -4.1930  -4.0765  -4.0680  -4.0639  -4.0601  -3.3595  -2.9998  -2.3809
    -1.7245  -1.5726  -1.1581   0.5533   0.7342   0.9202   0.9524   1.0032
     1.1087   1.2123   1.2173   1.2364   1.2732   1.3008   1.3110   1.3585
     1.4074   1.4686   1.5601   1.5635

     occupation numbers 
     1.0000   1.0000   1.0000   1.0000   1.0000   1.0000   1.0000   1.0000
     1.0000   1.0000   1.0000   1.0000   1.0000   1.0000   1.0000   1.0000
     1.0000   1.0000   1.0000   1.0000   1.0000   1.0000   1.0000   1.0000
     1.0000   1.0000   1.0000   1.0000   1.0000   1.0000   1.0000   1.0000
     1.0000   1.0000   1.0000   1.0000   1.0000   1.0000   1.0000   1.0000
     1.0000   1.0000   1.0000   1.0000   1.0000   1.0000   1.0000   1.0000
     1.0000   1.0000   1.0000   1.0000   1.0000   1.0000   1.0000   1.0000
     1.0000   1.0000   1.0000   1.0000   1.0000   1.0000   1.0000   1.0000
     1.0000   1.0000   1.0000   1.0000   1.0000   1.0000   1.0000   1.0000
     1.0000   1.0000   1.0000   1.0000   1.0000   1.0000   1.0000   1.0000
     1.0000   1.0000   1.0000   1.0000   1.0000   1.0000   1.0000   1.0000
     1.0000   1.0000   1.0000   1.0000   1.0000   1.0000   1.0000   1.0000
     1.0000   1.0000   1.0000   1.0000   1.0000   1.0000   1.0000   1.0000
     1.0000   1.0000   1.0000   1.0000   1.0000   1.0000   1.0000   1.0000
     1.0000   1.0000   1.0000   1.0000   1.0000   1.0000   1.0000   1.0000
     1.0000   1.0000   1.0000   1.0000   1.0000   1.0000   1.0000   1.0000
     1.0000   1.0000   1.0000   1.0000   1.0000   1.0000   1.0000   1.0000
     1.0000   1.0000   1.0000   1.0000   1.0000   1.0000   1.0000   1.0000
     1.0000   1.0000   1.0000   1.0000   1.0000   1.0000   1.0000   1.0000
     1.0000   1.0000   1.0000   1.0000   1.0000   1.0000   1.0000   1.0000
     1.0000   1.0000   1.0000   1.0000   1.0000   1.0000   1.0000   1.0000
     1.0000   1.0000   1.0000   1.0000   1.0000   1.0000   1.0000   1.0000
     1.0000   1.0000   1.0000   1.0000   1.0000   1.0000   1.0000   1.0000
     1.0000   1.0000   1.0000   1.0000   1.0000   1.0000   1.0000   1.0000
     1.0000   1.0000   1.0000   1.0000   1.0000   1.0000   0.0000   0.0000
     0.0000   0.0000   0.0000   0.0000   0.0000   0.0000   0.0000   0.0000
     0.0000   0.0000   0.0000   0.0000   0.0000   0.0000   0.0000   0.0000
     0.0000   0.0000   0.0000   0.0000

          k = 0.0000 0.3849 0.0000 (161877 PWs)   bands (ev):

   -61.1087 -37.5697 -37.4171 -37.4025 -21.4912 -21.3323 -21.1839 -21.0642
   -20.9337 -20.8622 -20.6983 -20.6775 -20.5633 -20.3877 -20.3033 -20.2511
   -20.1402 -20.1146 -19.9965 -19.8421 -19.7218 -19.6854 -19.6023 -19.5100
   -19.4048 -19.3839 -19.3254 -19.1830 -19.1035 -19.0291 -18.9536 -18.9191
   -18.8673 -18.8032 -18.7318 -18.6627 -18.6075 -18.5134 -18.4764 -18.4410
   -18.4249 -18.3666 -18.3145 -18.2759 -18.1979 -18.1880 -18.1599 -18.1320
   -17.9776 -17.9740 -17.8237 -17.8071 -12.7882 -12.6226 -12.5947 -12.4809
   -12.4488 -12.3865 -12.3000 -12.2268 -12.1653 -11.9885 -11.9678 -11.9339
   -11.8535 -11.8257 -11.7519 -11.7206 -11.7014 -11.6062 -11.5847 -11.5271
   -11.4484 -11.4088 -11.3628 -11.1770 -10.9454 -10.7809 -10.7394 -10.7192
   -10.6969 -10.6080 -10.4575 -10.3560 -10.2553 -10.2252 -10.1820 -10.0509
    -9.9399  -9.8624  -9.7149  -9.6120  -9.5266  -9.4260  -9.3430  -9.2805
    -9.2353  -9.1824  -9.0774  -9.0368  -8.9718  -8.9625  -8.8925  -8.8244
    -8.8139  -8.7817  -8.7568  -8.7213  -8.6897  -8.6526  -8.5164  -8.4818
    -8.3338  -8.3138  -8.3050  -8.2516  -8.2268  -8.1787  -8.1442  -8.0888
    -8.0538  -8.0259  -8.0091  -7.9758  -7.9393  -7.9320  -7.8973  -7.8788
    -7.8412  -7.8145  -7.7926  -7.7065  -7.6703  -7.5905  -7.5806  -7.4865
    -7.4640  -7.4310  -7.3980  -7.3671  -7.3042  -7.2490  -7.2281  -7.2056
    -7.1891  -7.1074  -7.0263  -6.9925  -6.9213  -6.8887  -6.7556  -6.7037
    -6.6290  -6.6255  -6.6130  -6.5581  -6.4622  -6.3982  -6.3777  -6.3289
    -6.2677  -6.2072  -6.1714  -6.1406  -6.1191  -6.0498  -5.8938  -5.8271
    -5.7951  -5.7203  -5.6702  -5.6413  -5.5761  -5.5235  -5.5030  -5.3917
    -5.3628  -5.3147  -5.2930  -5.2392  -5.1302  -5.0514  -4.9910  -4.8747
    -4.8241  -4.8152  -4.7326  -4.5959  -4.5678  -4.4754  -4.4639  -4.4270
    -4.3638  -4.1258  -4.1206  -3.8985  -3.8692  -3.3543  -2.9967  -2.3807
    -1.7239  -1.5726  -1.1572   0.5559   0.7079   0.9181   0.9680   1.0473
     1.0889   1.1282   1.2064   1.2342   1.2712   1.2909   1.3142   1.3368
     1.4199   1.4499   1.5224   1.5830

     occupation numbers 
     1.0000   1.0000   1.0000   1.0000   1.0000   1.0000   1.0000   1.0000
     1.0000   1.0000   1.0000   1.0000   1.0000   1.0000   1.0000   1.0000
     1.0000   1.0000   1.0000   1.0000   1.0000   1.0000   1.0000   1.0000
     1.0000   1.0000   1.0000   1.0000   1.0000   1.0000   1.0000   1.0000
     1.0000   1.0000   1.0000   1.0000   1.0000   1.0000   1.0000   1.0000
     1.0000   1.0000   1.0000   1.0000   1.0000   1.0000   1.0000   1.0000
     1.0000   1.0000   1.0000   1.0000   1.0000   1.0000   1.0000   1.0000
     1.0000   1.0000   1.0000   1.0000   1.0000   1.0000   1.0000   1.0000
     1.0000   1.0000   1.0000   1.0000   1.0000   1.0000   1.0000   1.0000
     1.0000   1.0000   1.0000   1.0000   1.0000   1.0000   1.0000   1.0000
     1.0000   1.0000   1.0000   1.0000   1.0000   1.0000   1.0000   1.0000
     1.0000   1.0000   1.0000   1.0000   1.0000   1.0000   1.0000   1.0000
     1.0000   1.0000   1.0000   1.0000   1.0000   1.0000   1.0000   1.0000
     1.0000   1.0000   1.0000   1.0000   1.0000   1.0000   1.0000   1.0000
     1.0000   1.0000   1.0000   1.0000   1.0000   1.0000   1.0000   1.0000
     1.0000   1.0000   1.0000   1.0000   1.0000   1.0000   1.0000   1.0000
     1.0000   1.0000   1.0000   1.0000   1.0000   1.0000   1.0000   1.0000
     1.0000   1.0000   1.0000   1.0000   1.0000   1.0000   1.0000   1.0000
     1.0000   1.0000   1.0000   1.0000   1.0000   1.0000   1.0000   1.0000
     1.0000   1.0000   1.0000   1.0000   1.0000   1.0000   1.0000   1.0000
     1.0000   1.0000   1.0000   1.0000   1.0000   1.0000   1.0000   1.0000
     1.0000   1.0000   1.0000   1.0000   1.0000   1.0000   1.0000   1.0000
     1.0000   1.0000   1.0000   1.0000   1.0000   1.0000   1.0000   1.0000
     1.0000   1.0000   1.0000   1.0000   1.0000   1.0000   1.0000   1.0000
     1.0000   1.0000   1.0000   1.0000   1.0000   1.0000   0.0000   0.0000
     0.0000   0.0000   0.0000   0.0000   0.0000   0.0000   0.0000   0.0000
     0.0000   0.0000   0.0000   0.0000   0.0000   0.0000   0.0000   0.0000
     0.0000   0.0000   0.0000   0.0000

          k = 0.3333 0.5774 0.0000 (161838 PWs)   bands (ev):

   -61.1087 -37.5697 -37.4171 -37.4025 -21.4809 -21.3378 -21.2413 -20.9848
   -20.9542 -20.8240 -20.6998 -20.6361 -20.4963 -20.4868 -20.4670 -20.3887
   -20.0164 -19.9546 -19.8541 -19.8025 -19.7943 -19.7458 -19.6196 -19.5341
   -19.4113 -19.3113 -19.2899 -19.2626 -19.2174 -19.1678 -19.0636 -18.8641
   -18.7510 -18.7371 -18.6502 -18.5891 -18.5636 -18.4868 -18.4783 -18.4502
   -18.4250 -18.3973 -18.2957 -18.2794 -18.2661 -18.1998 -18.1861 -18.1653
   -18.0958 -17.8655 -17.8508 -17.7696 -12.8201 -12.6564 -12.6375 -12.5009
   -12.3265 -12.3136 -12.1527 -12.1111 -12.0888 -12.0388 -12.0125 -12.0064
   -11.9402 -11.9174 -11.8696 -11.8381 -11.7707 -11.6665 -11.6205 -11.3857
   -11.2131 -11.1899 -11.1747 -11.1634 -11.1099 -11.1053 -11.0748 -10.9868
   -10.6773 -10.3852 -10.2515 -10.1731 -10.0602 -10.0515 -10.0086  -9.9312
    -9.8192  -9.7738  -9.7355  -9.6615  -9.6053  -9.5674  -9.5164  -9.4835
    -9.4440  -9.3818  -9.3556  -9.3034  -9.1847  -9.0130  -8.8264  -8.8142
    -8.7612  -8.6180  -8.5662  -8.4774  -8.4501  -8.3918  -8.3813  -8.3433
    -8.3320  -8.3264  -8.3035  -8.2233  -8.2094  -8.1753  -8.1438  -8.1310
    -8.1185  -8.1147  -8.0506  -8.0119  -7.9711  -7.9178  -7.8858  -7.7917
    -7.7828  -7.7454  -7.7332  -7.7210  -7.7161  -7.6921  -7.6491  -7.6365
    -7.5852  -7.5575  -7.5099  -7.4731  -7.4383  -7.3200  -7.2223  -7.1424
    -7.0392  -7.0284  -6.9273  -6.8266  -6.7941  -6.7756  -6.7616  -6.7509
    -6.7011  -6.6283  -6.5919  -6.5516  -6.5238  -6.4870  -6.4085  -6.3046
    -6.2507  -6.2221  -6.1301  -6.0511  -6.0276  -6.0009  -5.9938  -5.9724
    -5.9333  -5.8273  -5.7743  -5.7380  -5.5291  -5.4655  -5.4317  -5.3639
    -5.3104  -5.2889  -5.2097  -5.1073  -5.0889  -4.9766  -4.8891  -4.8612
    -4.8545  -4.8066  -4.7846  -4.5958  -4.5789  -4.5652  -4.4799  -4.4680
    -4.4517  -4.3297  -3.9454  -3.9338  -3.8110  -3.3507  -2.9949  -2.3809
    -1.7232  -1.5719  -1.1564   0.5543   0.6873   0.8881   0.9448   1.0162
     1.0601   1.0867   1.2122   1.3068   1.3676   1.3959   1.4106   1.4432
     1.4956   1.5418   1.5560   1.5737

     occupation numbers 
     1.0000   1.0000   1.0000   1.0000   1.0000   1.0000   1.0000   1.0000
     1.0000   1.0000   1.0000   1.0000   1.0000   1.0000   1.0000   1.0000
     1.0000   1.0000   1.0000   1.0000   1.0000   1.0000   1.0000   1.0000
     1.0000   1.0000   1.0000   1.0000   1.0000   1.0000   1.0000   1.0000
     1.0000   1.0000   1.0000   1.0000   1.0000   1.0000   1.0000   1.0000
     1.0000   1.0000   1.0000   1.0000   1.0000   1.0000   1.0000   1.0000
     1.0000   1.0000   1.0000   1.0000   1.0000   1.0000   1.0000   1.0000
     1.0000   1.0000   1.0000   1.0000   1.0000   1.0000   1.0000   1.0000
     1.0000   1.0000   1.0000   1.0000   1.0000   1.0000   1.0000   1.0000
     1.0000   1.0000   1.0000   1.0000   1.0000   1.0000   1.0000   1.0000
     1.0000   1.0000   1.0000   1.0000   1.0000   1.0000   1.0000   1.0000
     1.0000   1.0000   1.0000   1.0000   1.0000   1.0000   1.0000   1.0000
     1.0000   1.0000   1.0000   1.0000   1.0000   1.0000   1.0000   1.0000
     1.0000   1.0000   1.0000   1.0000   1.0000   1.0000   1.0000   1.0000
     1.0000   1.0000   1.0000   1.0000   1.0000   1.0000   1.0000   1.0000
     1.0000   1.0000   1.0000   1.0000   1.0000   1.0000   1.0000   1.0000
     1.0000   1.0000   1.0000   1.0000   1.0000   1.0000   1.0000   1.0000
     1.0000   1.0000   1.0000   1.0000   1.0000   1.0000   1.0000   1.0000
     1.0000   1.0000   1.0000   1.0000   1.0000   1.0000   1.0000   1.0000
     1.0000   1.0000   1.0000   1.0000   1.0000   1.0000   1.0000   1.0000
     1.0000   1.0000   1.0000   1.0000   1.0000   1.0000   1.0000   1.0000
     1.0000   1.0000   1.0000   1.0000   1.0000   1.0000   1.0000   1.0000
     1.0000   1.0000   1.0000   1.0000   1.0000   1.0000   1.0000   1.0000
     1.0000   1.0000   1.0000   1.0000   1.0000   1.0000   1.0000   1.0000
     1.0000   1.0000   1.0000   1.0000   1.0000   1.0000   0.0000   0.0000
     0.0000   0.0000   0.0000   0.0000   0.0000   0.0000   0.0000   0.0000
     0.0000   0.0000   0.0000   0.0000   0.0000   0.0000   0.0000   0.0000
     0.0000   0.0000   0.0000   0.0000

          k =-0.3333 0.1925 0.0000 (161877 PWs)   bands (ev):

   -61.1087 -37.5697 -37.4171 -37.4025 -21.4940 -21.2907 -21.2543 -21.0412
   -20.9032 -20.8557 -20.6992 -20.6813 -20.6014 -20.3761 -20.3715 -20.2053
   -20.1263 -20.0587 -20.0127 -19.8614 -19.7072 -19.6551 -19.6266 -19.5215
   -19.4513 -19.3804 -19.3411 -19.2038 -19.0750 -18.9910 -18.9586 -18.8945
   -18.8575 -18.7931 -18.7662 -18.6506 -18.6147 -18.5103 -18.4878 -18.4304
   -18.4288 -18.3718 -18.3150 -18.2807 -18.2062 -18.2004 -18.1806 -18.1112
   -17.9648 -17.9609 -17.8212 -17.8179 -12.7938 -12.6394 -12.5535 -12.5271
   -12.4703 -12.3541 -12.2468 -12.1822 -12.1571 -12.0494 -11.9701 -11.9144
   -11.8717 -11.8075 -11.7851 -11.7330 -11.7125 -11.6507 -11.5611 -11.5574
   -11.4698 -11.4246 -11.2648 -11.2487 -10.9055 -10.7557 -10.7334 -10.7113
   -10.7024 -10.5310 -10.4626 -10.3034 -10.2809 -10.1977 -10.1876 -10.1437
    -9.9366  -9.8234  -9.6900  -9.6852  -9.5740  -9.4377  -9.4287  -9.2714
    -9.2343  -9.1680  -9.1216  -9.0378  -8.9859  -8.9119  -8.8242  -8.7918
    -8.7774  -8.7565  -8.7489  -8.7348  -8.7266  -8.5945  -8.5045  -8.4771
    -8.4391  -8.3031  -8.2691  -8.2613  -8.2420  -8.1862  -8.1004  -8.0986
    -8.0408  -8.0238  -7.9929  -7.9799  -7.9636  -7.9351  -7.9160  -7.8996
    -7.8301  -7.8197  -7.7751  -7.7266  -7.6497  -7.5803  -7.5581  -7.5460
    -7.4646  -7.3910  -7.3891  -7.3632  -7.2976  -7.2860  -7.2275  -7.1853
    -7.1632  -7.1411  -7.0540  -6.9769  -6.9601  -6.8852  -6.8391  -6.6682
    -6.6620  -6.5989  -6.5781  -6.5126  -6.5052  -6.4095  -6.3496  -6.3131
    -6.2658  -6.1652  -6.1601  -6.1245  -6.1154  -6.0724  -5.9141  -5.8373
    -5.7748  -5.7337  -5.6569  -5.6478  -5.6156  -5.5367  -5.4825  -5.4031
    -5.3451  -5.3436  -5.2946  -5.2106  -5.1018  -5.0640  -4.9859  -4.9112
    -4.8266  -4.7867  -4.7245  -4.5965  -4.5633  -4.4761  -4.4653  -4.4306
    -4.3927  -4.1290  -4.1204  -3.8799  -3.8717  -3.3551  -2.9969  -2.3811
    -1.7232  -1.5712  -1.1568   0.5566   0.7074   0.9322   0.9500   1.0506
     1.0871   1.1282   1.2049   1.2744   1.2763   1.2836   1.3186   1.3241
     1.4259   1.4340   1.5124   1.6511

     occupation numbers 
     1.0000   1.0000   1.0000   1.0000   1.0000   1.0000   1.0000   1.0000
     1.0000   1.0000   1.0000   1.0000   1.0000   1.0000   1.0000   1.0000
     1.0000   1.0000   1.0000   1.0000   1.0000   1.0000   1.0000   1.0000
     1.0000   1.0000   1.0000   1.0000   1.0000   1.0000   1.0000   1.0000
     1.0000   1.0000   1.0000   1.0000   1.0000   1.0000   1.0000   1.0000
     1.0000   1.0000   1.0000   1.0000   1.0000   1.0000   1.0000   1.0000
     1.0000   1.0000   1.0000   1.0000   1.0000   1.0000   1.0000   1.0000
     1.0000   1.0000   1.0000   1.0000   1.0000   1.0000   1.0000   1.0000
     1.0000   1.0000   1.0000   1.0000   1.0000   1.0000   1.0000   1.0000
     1.0000   1.0000   1.0000   1.0000   1.0000   1.0000   1.0000   1.0000
     1.0000   1.0000   1.0000   1.0000   1.0000   1.0000   1.0000   1.0000
     1.0000   1.0000   1.0000   1.0000   1.0000   1.0000   1.0000   1.0000
     1.0000   1.0000   1.0000   1.0000   1.0000   1.0000   1.0000   1.0000
     1.0000   1.0000   1.0000   1.0000   1.0000   1.0000   1.0000   1.0000
     1.0000   1.0000   1.0000   1.0000   1.0000   1.0000   1.0000   1.0000
     1.0000   1.0000   1.0000   1.0000   1.0000   1.0000   1.0000   1.0000
     1.0000   1.0000   1.0000   1.0000   1.0000   1.0000   1.0000   1.0000
     1.0000   1.0000   1.0000   1.0000   1.0000   1.0000   1.0000   1.0000
     1.0000   1.0000   1.0000   1.0000   1.0000   1.0000   1.0000   1.0000
     1.0000   1.0000   1.0000   1.0000   1.0000   1.0000   1.0000   1.0000
     1.0000   1.0000   1.0000   1.0000   1.0000   1.0000   1.0000   1.0000
     1.0000   1.0000   1.0000   1.0000   1.0000   1.0000   1.0000   1.0000
     1.0000   1.0000   1.0000   1.0000   1.0000   1.0000   1.0000   1.0000
     1.0000   1.0000   1.0000   1.0000   1.0000   1.0000   1.0000   1.0000
     1.0000   1.0000   1.0000   1.0000   1.0000   1.0000   0.0000   0.0000
     0.0000   0.0000   0.0000   0.0000   0.0000   0.0000   0.0000   0.0000
     0.0000   0.0000   0.0000   0.0000   0.0000   0.0000   0.0000   0.0000
     0.0000   0.0000   0.0000   0.0000

          k = 0.3333 0.1925 0.0000 (161877 PWs)   bands (ev):

   -61.1087 -37.5697 -37.4171 -37.4025 -21.4915 -21.3305 -21.1865 -21.0648
   -20.9320 -20.8614 -20.6984 -20.6761 -20.5647 -20.3882 -20.3055 -20.2530
   -20.1393 -20.1125 -19.9950 -19.8415 -19.7223 -19.6860 -19.6008 -19.5086
   -19.4068 -19.3838 -19.3273 -19.1857 -19.1040 -19.0285 -18.9520 -18.9166
   -18.8657 -18.8030 -18.7330 -18.6631 -18.6081 -18.5143 -18.4745 -18.4414
   -18.4252 -18.3669 -18.3148 -18.2761 -18.1983 -18.1885 -18.1612 -18.1306
   -17.9771 -17.9732 -17.8241 -17.8073 -12.7886 -12.6220 -12.5941 -12.4830
   -12.4460 -12.3874 -12.3003 -12.2279 -12.1644 -11.9882 -11.9673 -11.9334
   -11.8533 -11.8257 -11.7522 -11.7211 -11.7019 -11.6063 -11.5853 -11.5272
   -11.4485 -11.4101 -11.3621 -11.1761 -10.9447 -10.7797 -10.7394 -10.7190
   -10.6964 -10.6076 -10.4585 -10.3568 -10.2550 -10.2260 -10.1831 -10.0513
    -9.9391  -9.8617  -9.7149  -9.6115  -9.5264  -9.4259  -9.3429  -9.2808
    -9.2350  -9.1818  -9.0785  -9.0375  -8.9723  -8.9639  -8.8917  -8.8243
    -8.8115  -8.7819  -8.7573  -8.7207  -8.6892  -8.6560  -8.5163  -8.4803
    -8.3346  -8.3119  -8.3046  -8.2501  -8.2279  -8.1791  -8.1441  -8.0872
    -8.0532  -8.0269  -8.0093  -7.9766  -7.9368  -7.9326  -7.8982  -7.8792
    -7.8418  -7.8145  -7.7935  -7.7071  -7.6713  -7.5912  -7.5805  -7.4876
    -7.4651  -7.4314  -7.3976  -7.3673  -7.3040  -7.2495  -7.2269  -7.2034
    -7.1886  -7.1076  -7.0252  -6.9911  -6.9210  -6.8882  -6.7547  -6.7044
    -6.6300  -6.6276  -6.6134  -6.5575  -6.4612  -6.3965  -6.3771  -6.3299
    -6.2670  -6.2084  -6.1722  -6.1423  -6.1203  -6.0521  -5.8934  -5.8265
    -5.7948  -5.7209  -5.6707  -5.6408  -5.5734  -5.5240  -5.5011  -5.3909
    -5.3621  -5.3134  -5.2934  -5.2393  -5.1302  -5.0524  -4.9919  -4.8731
    -4.8253  -4.8154  -4.7329  -4.5966  -4.5685  -4.4760  -4.4641  -4.4274
    -4.3634  -4.1251  -4.1195  -3.8986  -3.8694  -3.3542  -2.9967  -2.3807
    -1.7240  -1.5725  -1.1573   0.5558   0.7082   0.9184   0.9677   1.0467
     1.0896   1.1276   1.2055   1.2362   1.2710   1.2915   1.3128   1.3375
     1.4193   1.4478   1.5261   1.5815

     occupation numbers 
     1.0000   1.0000   1.0000   1.0000   1.0000   1.0000   1.0000   1.0000
     1.0000   1.0000   1.0000   1.0000   1.0000   1.0000   1.0000   1.0000
     1.0000   1.0000   1.0000   1.0000   1.0000   1.0000   1.0000   1.0000
     1.0000   1.0000   1.0000   1.0000   1.0000   1.0000   1.0000   1.0000
     1.0000   1.0000   1.0000   1.0000   1.0000   1.0000   1.0000   1.0000
     1.0000   1.0000   1.0000   1.0000   1.0000   1.0000   1.0000   1.0000
     1.0000   1.0000   1.0000   1.0000   1.0000   1.0000   1.0000   1.0000
     1.0000   1.0000   1.0000   1.0000   1.0000   1.0000   1.0000   1.0000
     1.0000   1.0000   1.0000   1.0000   1.0000   1.0000   1.0000   1.0000
     1.0000   1.0000   1.0000   1.0000   1.0000   1.0000   1.0000   1.0000
     1.0000   1.0000   1.0000   1.0000   1.0000   1.0000   1.0000   1.0000
     1.0000   1.0000   1.0000   1.0000   1.0000   1.0000   1.0000   1.0000
     1.0000   1.0000   1.0000   1.0000   1.0000   1.0000   1.0000   1.0000
     1.0000   1.0000   1.0000   1.0000   1.0000   1.0000   1.0000   1.0000
     1.0000   1.0000   1.0000   1.0000   1.0000   1.0000   1.0000   1.0000
     1.0000   1.0000   1.0000   1.0000   1.0000   1.0000   1.0000   1.0000
     1.0000   1.0000   1.0000   1.0000   1.0000   1.0000   1.0000   1.0000
     1.0000   1.0000   1.0000   1.0000   1.0000   1.0000   1.0000   1.0000
     1.0000   1.0000   1.0000   1.0000   1.0000   1.0000   1.0000   1.0000
     1.0000   1.0000   1.0000   1.0000   1.0000   1.0000   1.0000   1.0000
     1.0000   1.0000   1.0000   1.0000   1.0000   1.0000   1.0000   1.0000
     1.0000   1.0000   1.0000   1.0000   1.0000   1.0000   1.0000   1.0000
     1.0000   1.0000   1.0000   1.0000   1.0000   1.0000   1.0000   1.0000
     1.0000   1.0000   1.0000   1.0000   1.0000   1.0000   1.0000   1.0000
     1.0000   1.0000   1.0000   1.0000   1.0000   1.0000   0.0000   0.0000
     0.0000   0.0000   0.0000   0.0000   0.0000   0.0000   0.0000   0.0000
     0.0000   0.0000   0.0000   0.0000   0.0000   0.0000   0.0000   0.0000
     0.0000   0.0000   0.0000   0.0000

 ------ SPIN DOWN ----------


          k = 0.0000 0.0000 0.0000 (161811 PWs)   bands (ev):

   -60.6095 -37.3205 -36.6555 -36.6248 -21.5012 -21.2624 -21.1767 -21.0049
   -20.9888 -20.9356 -20.8864 -20.4407 -20.4020 -20.3640 -20.3229 -20.2799
   -20.0940 -20.0237 -19.9868 -19.9806 -19.9322 -19.8836 -19.7192 -19.2901
   -19.2600 -19.2553 -19.1112 -19.0673 -19.0194 -19.0135 -18.9973 -18.9866
   -18.9592 -18.9128 -18.7716 -18.7189 -18.7048 -18.5589 -18.5541 -18.5462
   -18.4477 -18.3627 -18.2299 -18.2269 -18.1753 -18.1403 -18.0305 -18.0259
   -17.9405 -17.9303 -17.9229 -17.9193 -12.7314 -12.5754 -12.5511 -12.4658
   -12.4516 -12.3748 -12.2405 -12.2217 -12.2158 -12.1970 -12.1627 -12.0538
   -11.8656 -11.8504 -11.7591 -11.7308 -11.6060 -11.5725 -11.3620 -11.1624
   -11.1611 -11.1070 -11.0691 -11.0567 -11.0418 -11.0000 -10.9703 -10.9677
   -10.8932 -10.8015 -10.5442 -10.3571 -10.3307 -10.3088 -10.2487 -10.1540
    -9.8535  -9.7577  -9.7036  -9.6715  -9.6413  -9.3375  -9.1579  -9.1309
    -9.0545  -9.0517  -8.9295  -8.8846  -8.8541  -8.7600  -8.7478  -8.7346
    -8.6893  -8.6707  -8.6506  -8.6333  -8.6272  -8.6045  -8.5877  -8.4998
    -8.4943  -8.4715  -8.4678  -8.4642  -8.4543  -8.4366  -8.3956  -8.3807
    -8.3399  -8.2993  -8.2284  -8.0820  -7.9460  -7.8386  -7.8024  -7.7980
    -7.7757  -7.6245  -7.6069  -7.5649  -7.5516  -7.4778  -7.4742  -7.4654
    -7.3832  -7.3428  -7.2625  -7.1484  -7.1272  -7.0818  -7.0711  -7.0553
    -7.0415  -7.0318  -7.0253  -7.0061  -7.0037  -6.9908  -6.9834  -6.9403
    -6.9328  -6.7983  -6.7631  -6.6989  -6.6373  -6.5526  -6.5404  -6.0454
    -5.9970  -5.9956  -5.9267  -5.8868  -5.8770  -5.8738  -5.8505  -5.7941
    -5.7201  -5.7169  -5.6563  -5.6365  -5.6187  -5.6048  -5.6039  -5.5940
    -5.5351  -5.3450  -5.2282  -5.2004  -5.1718  -5.1472  -5.0139  -5.0089
    -4.9991  -4.8381  -4.6782  -4.4402  -4.4298  -4.4224  -4.3995  -4.1939
    -4.1922  -4.0757  -4.0659  -4.0597  -4.0587  -2.6700  -2.3397  -2.0878
    -1.5170  -1.1474  -0.9704   0.6494   0.7832   0.9591   0.9688   1.0408
     1.1200   1.2150   1.2213   1.2834   1.3027   1.3033   1.3135   1.3631
     1.4769   1.5126   1.5697   1.6018

     occupation numbers 
     1.0000   1.0000   1.0000   1.0000   1.0000   1.0000   1.0000   1.0000
     1.0000   1.0000   1.0000   1.0000   1.0000   1.0000   1.0000   1.0000
     1.0000   1.0000   1.0000   1.0000   1.0000   1.0000   1.0000   1.0000
     1.0000   1.0000   1.0000   1.0000   1.0000   1.0000   1.0000   1.0000
     1.0000   1.0000   1.0000   1.0000   1.0000   1.0000   1.0000   1.0000
     1.0000   1.0000   1.0000   1.0000   1.0000   1.0000   1.0000   1.0000
     1.0000   1.0000   1.0000   1.0000   1.0000   1.0000   1.0000   1.0000
     1.0000   1.0000   1.0000   1.0000   1.0000   1.0000   1.0000   1.0000
     1.0000   1.0000   1.0000   1.0000   1.0000   1.0000   1.0000   1.0000
     1.0000   1.0000   1.0000   1.0000   1.0000   1.0000   1.0000   1.0000
     1.0000   1.0000   1.0000   1.0000   1.0000   1.0000   1.0000   1.0000
     1.0000   1.0000   1.0000   1.0000   1.0000   1.0000   1.0000   1.0000
     1.0000   1.0000   1.0000   1.0000   1.0000   1.0000   1.0000   1.0000
     1.0000   1.0000   1.0000   1.0000   1.0000   1.0000   1.0000   1.0000
     1.0000   1.0000   1.0000   1.0000   1.0000   1.0000   1.0000   1.0000
     1.0000   1.0000   1.0000   1.0000   1.0000   1.0000   1.0000   1.0000
     1.0000   1.0000   1.0000   1.0000   1.0000   1.0000   1.0000   1.0000
     1.0000   1.0000   1.0000   1.0000   1.0000   1.0000   1.0000   1.0000
     1.0000   1.0000   1.0000   1.0000   1.0000   1.0000   1.0000   1.0000
     1.0000   1.0000   1.0000   1.0000   1.0000   1.0000   1.0000   1.0000
     1.0000   1.0000   1.0000   1.0000   1.0000   1.0000   1.0000   1.0000
     1.0000   1.0000   1.0000   1.0000   1.0000   1.0000   1.0000   1.0000
     1.0000   1.0000   1.0000   1.0000   1.0000   1.0000   1.0000   1.0000
     1.0000   1.0000   1.0000   1.0000   1.0000   1.0000   1.0000   1.0000
     1.0000   1.0000   1.0000   1.0000   1.0000   0.0000   0.0000   0.0000
     0.0000   0.0000   0.0000   0.0000   0.0000   0.0000   0.0000   0.0000
     0.0000   0.0000   0.0000   0.0000   0.0000   0.0000   0.0000   0.0000
     0.0000   0.0000   0.0000   0.0000

          k = 0.0000 0.3849 0.0000 (161877 PWs)   bands (ev):

   -60.6095 -37.3205 -36.6555 -36.6248 -21.4815 -21.3221 -21.1808 -21.0618
   -20.9273 -20.8577 -20.6974 -20.6746 -20.5581 -20.3846 -20.2984 -20.2435
   -20.1371 -20.1118 -19.9930 -19.8358 -19.7192 -19.6813 -19.5988 -19.5055
   -19.4031 -19.3819 -19.3216 -19.1756 -19.0989 -19.0256 -18.9514 -18.9182
   -18.8643 -18.8009 -18.7295 -18.6610 -18.6070 -18.5121 -18.4729 -18.4396
   -18.4239 -18.3648 -18.3143 -18.2754 -18.1979 -18.1875 -18.1578 -18.1306
   -17.9773 -17.9738 -17.8237 -17.8063 -12.7758 -12.5980 -12.5787 -12.4728
   -12.4320 -12.3759 -12.2969 -12.2196 -12.1591 -11.9810 -11.9633 -11.9316
   -11.8498 -11.8212 -11.7419 -11.7179 -11.6995 -11.6024 -11.5804 -11.5242
   -11.4444 -11.4016 -11.3495 -11.1747 -10.9247 -10.7769 -10.7366 -10.7162
   -10.6943 -10.5988 -10.4495 -10.3450 -10.2533 -10.2223 -10.1762 -10.0391
    -9.9373  -9.8596  -9.7061  -9.6037  -9.5199  -9.4209  -9.3348  -9.2763
    -9.2311  -9.1765  -9.0730  -9.0219  -8.9613  -8.9502  -8.8873  -8.8213
    -8.8050  -8.7802  -8.7542  -8.7179  -8.6825  -8.6439  -8.5123  -8.4736
    -8.3307  -8.3037  -8.2980  -8.2475  -8.2197  -8.1712  -8.1422  -8.0804
    -8.0473  -8.0222  -8.0069  -7.9726  -7.9361  -7.9286  -7.8885  -7.8699
    -7.8355  -7.8126  -7.7884  -7.7001  -7.6601  -7.5860  -7.5747  -7.4758
    -7.4560  -7.4235  -7.3920  -7.3617  -7.2958  -7.2418  -7.2233  -7.1984
    -7.1816  -7.1015  -7.0152  -6.9872  -6.9117  -6.8770  -6.7417  -6.6902
    -6.6239  -6.6196  -6.6093  -6.5454  -6.4497  -6.3837  -6.3681  -6.3162
    -6.2530  -6.1970  -6.1680  -6.1335  -6.1123  -6.0186  -5.8609  -5.7995
    -5.7584  -5.7013  -5.6449  -5.6149  -5.5654  -5.5136  -5.4548  -5.3722
    -5.3512  -5.3017  -5.2725  -5.2190  -5.1205  -5.0444  -4.9771  -4.8527
    -4.8146  -4.8009  -4.7263  -4.5943  -4.5638  -4.4752  -4.4636  -4.4082
    -4.3511  -4.1235  -4.1191  -3.8833  -3.8602  -2.6680  -2.3410  -2.0877
    -1.5165  -1.1472  -0.9696   0.6527   0.7531   0.9306   1.0279   1.0789
     1.0966   1.1383   1.2224   1.2677   1.2740   1.3010   1.3262   1.3552
     1.4390   1.4899   1.5706   1.6382

     occupation numbers 
     1.0000   1.0000   1.0000   1.0000   1.0000   1.0000   1.0000   1.0000
     1.0000   1.0000   1.0000   1.0000   1.0000   1.0000   1.0000   1.0000
     1.0000   1.0000   1.0000   1.0000   1.0000   1.0000   1.0000   1.0000
     1.0000   1.0000   1.0000   1.0000   1.0000   1.0000   1.0000   1.0000
     1.0000   1.0000   1.0000   1.0000   1.0000   1.0000   1.0000   1.0000
     1.0000   1.0000   1.0000   1.0000   1.0000   1.0000   1.0000   1.0000
     1.0000   1.0000   1.0000   1.0000   1.0000   1.0000   1.0000   1.0000
     1.0000   1.0000   1.0000   1.0000   1.0000   1.0000   1.0000   1.0000
     1.0000   1.0000   1.0000   1.0000   1.0000   1.0000   1.0000   1.0000
     1.0000   1.0000   1.0000   1.0000   1.0000   1.0000   1.0000   1.0000
     1.0000   1.0000   1.0000   1.0000   1.0000   1.0000   1.0000   1.0000
     1.0000   1.0000   1.0000   1.0000   1.0000   1.0000   1.0000   1.0000
     1.0000   1.0000   1.0000   1.0000   1.0000   1.0000   1.0000   1.0000
     1.0000   1.0000   1.0000   1.0000   1.0000   1.0000   1.0000   1.0000
     1.0000   1.0000   1.0000   1.0000   1.0000   1.0000   1.0000   1.0000
     1.0000   1.0000   1.0000   1.0000   1.0000   1.0000   1.0000   1.0000
     1.0000   1.0000   1.0000   1.0000   1.0000   1.0000   1.0000   1.0000
     1.0000   1.0000   1.0000   1.0000   1.0000   1.0000   1.0000   1.0000
     1.0000   1.0000   1.0000   1.0000   1.0000   1.0000   1.0000   1.0000
     1.0000   1.0000   1.0000   1.0000   1.0000   1.0000   1.0000   1.0000
     1.0000   1.0000   1.0000   1.0000   1.0000   1.0000   1.0000   1.0000
     1.0000   1.0000   1.0000   1.0000   1.0000   1.0000   1.0000   1.0000
     1.0000   1.0000   1.0000   1.0000   1.0000   1.0000   1.0000   1.0000
     1.0000   1.0000   1.0000   1.0000   1.0000   1.0000   1.0000   1.0000
     1.0000   1.0000   1.0000   1.0000   1.0000   0.0000   0.0000   0.0000
     0.0000   0.0000   0.0000   0.0000   0.0000   0.0000   0.0000   0.0000
     0.0000   0.0000   0.0000   0.0000   0.0000   0.0000   0.0000   0.0000
     0.0000   0.0000   0.0000   0.0000

          k = 0.3333 0.5774 0.0000 (161838 PWs)   bands (ev):

   -60.6095 -37.3205 -36.6555 -36.6248 -21.4706 -21.3278 -21.2393 -20.9793
   -20.9522 -20.8197 -20.6921 -20.6331 -20.4953 -20.4833 -20.4648 -20.3844
   -20.0045 -19.9509 -19.8496 -19.8012 -19.7913 -19.7448 -19.6116 -19.5315
   -19.4057 -19.3074 -19.2890 -19.2624 -19.2140 -19.1663 -19.0610 -18.8544
   -18.7493 -18.7334 -18.6479 -18.5871 -18.5624 -18.4858 -18.4771 -18.4494
   -18.4236 -18.3958 -18.2949 -18.2794 -18.2650 -18.1995 -18.1859 -18.1654
   -18.0933 -17.8651 -17.8508 -17.7689 -12.8099 -12.6370 -12.6253 -12.4692
   -12.3176 -12.3031 -12.1472 -12.1085 -12.0878 -12.0355 -12.0103 -11.9976
   -11.9376 -11.9163 -11.8552 -11.8359 -11.7619 -11.6653 -11.6151 -11.3709
   -11.2094 -11.1875 -11.1714 -11.1604 -11.1071 -11.0997 -11.0725 -10.9708
   -10.6715 -10.3610 -10.2444 -10.1705 -10.0555 -10.0458 -10.0061  -9.9224
    -9.8135  -9.7659  -9.7318  -9.6595  -9.6017  -9.5591  -9.5135  -9.4818
    -9.4388  -9.3812  -9.3542  -9.3003  -9.1679  -8.9963  -8.8196  -8.8033
    -8.7554  -8.6063  -8.5407  -8.4726  -8.4441  -8.3858  -8.3730  -8.3400
    -8.3278  -8.3246  -8.3025  -8.2181  -8.2024  -8.1731  -8.1421  -8.1289
    -8.1165  -8.1131  -8.0384  -8.0072  -7.9627  -7.9086  -7.8811  -7.7878
    -7.7793  -7.7425  -7.7260  -7.7163  -7.7133  -7.6860  -7.6444  -7.6303
    -7.5837  -7.5527  -7.5043  -7.4718  -7.4267  -7.3093  -7.2122  -7.1245
    -7.0233  -7.0129  -6.9165  -6.8142  -6.7882  -6.7721  -6.7602  -6.7451
    -6.6959  -6.6222  -6.5871  -6.5316  -6.5135  -6.4775  -6.4025  -6.2944
    -6.2381  -6.2089  -6.1215  -6.0295  -6.0126  -5.9961  -5.9694  -5.9271
    -5.9250  -5.8124  -5.7479  -5.7156  -5.4970  -5.4541  -5.3556  -5.3471
    -5.3012  -5.2543  -5.1920  -5.0920  -5.0707  -4.9678  -4.8889  -4.8603
    -4.8530  -4.7904  -4.7729  -4.5939  -4.5765  -4.5637  -4.4797  -4.4673
    -4.4518  -4.2996  -3.9349  -3.9319  -3.7906  -2.6668  -2.3410  -2.0878
    -1.5158  -1.1466  -0.9687   0.6504   0.7298   0.8951   1.0008   1.0370
     1.0661   1.1042   1.3099   1.3178   1.3734   1.4097   1.4277   1.4511
     1.5512   1.5538   1.5647   1.5958

     occupation numbers 
     1.0000   1.0000   1.0000   1.0000   1.0000   1.0000   1.0000   1.0000
     1.0000   1.0000   1.0000   1.0000   1.0000   1.0000   1.0000   1.0000
     1.0000   1.0000   1.0000   1.0000   1.0000   1.0000   1.0000   1.0000
     1.0000   1.0000   1.0000   1.0000   1.0000   1.0000   1.0000   1.0000
     1.0000   1.0000   1.0000   1.0000   1.0000   1.0000   1.0000   1.0000
     1.0000   1.0000   1.0000   1.0000   1.0000   1.0000   1.0000   1.0000
     1.0000   1.0000   1.0000   1.0000   1.0000   1.0000   1.0000   1.0000
     1.0000   1.0000   1.0000   1.0000   1.0000   1.0000   1.0000   1.0000
     1.0000   1.0000   1.0000   1.0000   1.0000   1.0000   1.0000   1.0000
     1.0000   1.0000   1.0000   1.0000   1.0000   1.0000   1.0000   1.0000
     1.0000   1.0000   1.0000   1.0000   1.0000   1.0000   1.0000   1.0000
     1.0000   1.0000   1.0000   1.0000   1.0000   1.0000   1.0000   1.0000
     1.0000   1.0000   1.0000   1.0000   1.0000   1.0000   1.0000   1.0000
     1.0000   1.0000   1.0000   1.0000   1.0000   1.0000   1.0000   1.0000
     1.0000   1.0000   1.0000   1.0000   1.0000   1.0000   1.0000   1.0000
     1.0000   1.0000   1.0000   1.0000   1.0000   1.0000   1.0000   1.0000
     1.0000   1.0000   1.0000   1.0000   1.0000   1.0000   1.0000   1.0000
     1.0000   1.0000   1.0000   1.0000   1.0000   1.0000   1.0000   1.0000
     1.0000   1.0000   1.0000   1.0000   1.0000   1.0000   1.0000   1.0000
     1.0000   1.0000   1.0000   1.0000   1.0000   1.0000   1.0000   1.0000
     1.0000   1.0000   1.0000   1.0000   1.0000   1.0000   1.0000   1.0000
     1.0000   1.0000   1.0000   1.0000   1.0000   1.0000   1.0000   1.0000
     1.0000   1.0000   1.0000   1.0000   1.0000   1.0000   1.0000   1.0000
     1.0000   1.0000   1.0000   1.0000   1.0000   1.0000   1.0000   1.0000
     1.0000   1.0000   1.0000   1.0000   1.0000   0.0000   0.0000   0.0000
     0.0000   0.0000   0.0000   0.0000   0.0000   0.0000   0.0000   0.0000
     0.0000   0.0000   0.0000   0.0000   0.0000   0.0000   0.0000   0.0000
     0.0000   0.0000   0.0000   0.0000

          k =-0.3333 0.1925 0.0000 (161877 PWs)   bands (ev):

   -60.6095 -37.3205 -36.6555 -36.6248 -21.4843 -21.2773 -21.2524 -21.0404
   -20.9012 -20.8506 -20.6972 -20.6754 -20.5945 -20.3705 -20.3671 -20.2044
   -20.1249 -20.0587 -20.0059 -19.8524 -19.7044 -19.6544 -19.6191 -19.5118
   -19.4488 -19.3792 -19.3401 -19.2014 -19.0718 -18.9871 -18.9580 -18.8936
   -18.8483 -18.7921 -18.7641 -18.6483 -18.6134 -18.5090 -18.4846 -18.4298
   -18.4268 -18.3706 -18.3145 -18.2802 -18.2051 -18.2004 -18.1802 -18.1092
   -17.9647 -17.9607 -17.8202 -17.8177 -12.7828 -12.6063 -12.5412 -12.5206
   -12.4569 -12.3501 -12.2436 -12.1711 -12.1503 -12.0376 -11.9611 -11.9118
   -11.8697 -11.7960 -11.7831 -11.7281 -11.7109 -11.6441 -11.5592 -11.5552
   -11.4630 -11.4226 -11.2565 -11.2438 -10.8863 -10.7531 -10.7316 -10.7046
   -10.6998 -10.5167 -10.4561 -10.2996 -10.2769 -10.1939 -10.1817 -10.1385
    -9.9328  -9.8163  -9.6841  -9.6737  -9.5647  -9.4263  -9.4237  -9.2611
    -9.2324  -9.1592  -9.1169  -9.0241  -8.9813  -8.9080  -8.8225  -8.7873
    -8.7738  -8.7530  -8.7463  -8.7252  -8.7231  -8.5824  -8.4999  -8.4602
    -8.4347  -8.2974  -8.2637  -8.2520  -8.2380  -8.1843  -8.0943  -8.0916
    -8.0376  -8.0214  -7.9895  -7.9767  -7.9553  -7.9307  -7.9142  -7.8872
    -7.8285  -7.8182  -7.7661  -7.7159  -7.6436  -7.5767  -7.5454  -7.5432
    -7.4574  -7.3875  -7.3857  -7.3529  -7.2844  -7.2828  -7.2235  -7.1790
    -7.1603  -7.1355  -7.0393  -6.9733  -6.9493  -6.8742  -6.8170  -6.6550
    -6.6475  -6.5904  -6.5725  -6.4974  -6.4842  -6.4025  -6.3422  -6.3020
    -6.2506  -6.1575  -6.1546  -6.1195  -6.1135  -6.0679  -5.9007  -5.7685
    -5.7669  -5.7271  -5.6259  -5.6239  -5.5275  -5.5247  -5.4702  -5.3787
    -5.3343  -5.3211  -5.2814  -5.2006  -5.0969  -5.0568  -4.9770  -4.8742
    -4.8160  -4.7821  -4.7199  -4.5942  -4.5612  -4.4758  -4.4649  -4.4267
    -4.3625  -4.1216  -4.1201  -3.8673  -3.8658  -2.6682  -2.3401  -2.0879
    -1.5158  -1.1463  -0.9691   0.6532   0.7527   0.9397   1.0136   1.0868
     1.0895   1.1408   1.2380   1.2770   1.2849   1.2875   1.3253   1.3554
     1.4395   1.5097   1.5212   1.6565

     occupation numbers 
     1.0000   1.0000   1.0000   1.0000   1.0000   1.0000   1.0000   1.0000
     1.0000   1.0000   1.0000   1.0000   1.0000   1.0000   1.0000   1.0000
     1.0000   1.0000   1.0000   1.0000   1.0000   1.0000   1.0000   1.0000
     1.0000   1.0000   1.0000   1.0000   1.0000   1.0000   1.0000   1.0000
     1.0000   1.0000   1.0000   1.0000   1.0000   1.0000   1.0000   1.0000
     1.0000   1.0000   1.0000   1.0000   1.0000   1.0000   1.0000   1.0000
     1.0000   1.0000   1.0000   1.0000   1.0000   1.0000   1.0000   1.0000
     1.0000   1.0000   1.0000   1.0000   1.0000   1.0000   1.0000   1.0000
     1.0000   1.0000   1.0000   1.0000   1.0000   1.0000   1.0000   1.0000
     1.0000   1.0000   1.0000   1.0000   1.0000   1.0000   1.0000   1.0000
     1.0000   1.0000   1.0000   1.0000   1.0000   1.0000   1.0000   1.0000
     1.0000   1.0000   1.0000   1.0000   1.0000   1.0000   1.0000   1.0000
     1.0000   1.0000   1.0000   1.0000   1.0000   1.0000   1.0000   1.0000
     1.0000   1.0000   1.0000   1.0000   1.0000   1.0000   1.0000   1.0000
     1.0000   1.0000   1.0000   1.0000   1.0000   1.0000   1.0000   1.0000
     1.0000   1.0000   1.0000   1.0000   1.0000   1.0000   1.0000   1.0000
     1.0000   1.0000   1.0000   1.0000   1.0000   1.0000   1.0000   1.0000
     1.0000   1.0000   1.0000   1.0000   1.0000   1.0000   1.0000   1.0000
     1.0000   1.0000   1.0000   1.0000   1.0000   1.0000   1.0000   1.0000
     1.0000   1.0000   1.0000   1.0000   1.0000   1.0000   1.0000   1.0000
     1.0000   1.0000   1.0000   1.0000   1.0000   1.0000   1.0000   1.0000
     1.0000   1.0000   1.0000   1.0000   1.0000   1.0000   1.0000   1.0000
     1.0000   1.0000   1.0000   1.0000   1.0000   1.0000   1.0000   1.0000
     1.0000   1.0000   1.0000   1.0000   1.0000   1.0000   1.0000   1.0000
     1.0000   1.0000   1.0000   1.0000   1.0000   0.0000   0.0000   0.0000
     0.0000   0.0000   0.0000   0.0000   0.0000   0.0000   0.0000   0.0000
     0.0000   0.0000   0.0000   0.0000   0.0000   0.0000   0.0000   0.0000
     0.0000   0.0000   0.0000   0.0000

          k = 0.3333 0.1925 0.0000 (161877 PWs)   bands (ev):

   -60.6095 -37.3205 -36.6555 -36.6248 -21.4819 -21.3201 -21.1837 -21.0623
   -20.9254 -20.8569 -20.6976 -20.6732 -20.5594 -20.3851 -20.3007 -20.2453
   -20.1361 -20.1097 -19.9915 -19.8351 -19.7196 -19.6821 -19.5974 -19.5041
   -19.4052 -19.3818 -19.3234 -19.1786 -19.0994 -19.0251 -18.9497 -18.9156
   -18.8627 -18.8007 -18.7306 -18.6614 -18.6076 -18.5129 -18.4710 -18.4399
   -18.4241 -18.3652 -18.3146 -18.2756 -18.1982 -18.1880 -18.1593 -18.1290
   -17.9767 -17.9729 -17.8240 -17.8065 -12.7762 -12.5981 -12.5774 -12.4755
   -12.4281 -12.3771 -12.2972 -12.2209 -12.1581 -11.9806 -11.9630 -11.9312
   -11.8497 -11.8212 -11.7420 -11.7187 -11.7000 -11.6025 -11.5810 -11.5243
   -11.4446 -11.4031 -11.3487 -11.1738 -10.9238 -10.7759 -10.7366 -10.7160
   -10.6937 -10.5985 -10.4506 -10.3459 -10.2530 -10.2233 -10.1776 -10.0394
    -9.9364  -9.8589  -9.7059  -9.6033  -9.5198  -9.4209  -9.3346  -9.2765
    -9.2308  -9.1760  -9.0741  -9.0226  -8.9621  -8.9516  -8.8865  -8.8212
    -8.8024  -8.7804  -8.7547  -8.7172  -8.6821  -8.6475  -8.5120  -8.4720
    -8.3313  -8.3020  -8.2973  -8.2461  -8.2209  -8.1717  -8.1420  -8.0786
    -8.0467  -8.0233  -8.0070  -7.9735  -7.9339  -7.9290  -7.8891  -7.8703
    -7.8360  -7.8127  -7.7894  -7.7008  -7.6605  -7.5869  -7.5746  -7.4773
    -7.4573  -7.4240  -7.3914  -7.3618  -7.2957  -7.2424  -7.2220  -7.1972
    -7.1804  -7.1015  -7.0144  -6.9859  -6.9110  -6.8761  -6.7403  -6.6910
    -6.6251  -6.6216  -6.6096  -6.5454  -6.4488  -6.3823  -6.3679  -6.3180
    -6.2516  -6.1976  -6.1686  -6.1351  -6.1138  -6.0196  -5.8610  -5.7992
    -5.7584  -5.7002  -5.6470  -5.6152  -5.5628  -5.5124  -5.4542  -5.3703
    -5.3506  -5.3012  -5.2729  -5.2187  -5.1204  -5.0454  -4.9782  -4.8507
    -4.8147  -4.8021  -4.7268  -4.5951  -4.5645  -4.4758  -4.4639  -4.4094
    -4.3502  -4.1226  -4.1180  -3.8834  -3.8603  -2.6680  -2.3410  -2.0877
    -1.5165  -1.1471  -0.9696   0.6527   0.7533   0.9310   1.0273   1.0784
     1.0965   1.1386   1.2237   1.2678   1.2741   1.3015   1.3254   1.3556
     1.4389   1.4864   1.5721   1.6375

     occupation numbers 
     1.0000   1.0000   1.0000   1.0000   1.0000   1.0000   1.0000   1.0000
     1.0000   1.0000   1.0000   1.0000   1.0000   1.0000   1.0000   1.0000
     1.0000   1.0000   1.0000   1.0000   1.0000   1.0000   1.0000   1.0000
     1.0000   1.0000   1.0000   1.0000   1.0000   1.0000   1.0000   1.0000
     1.0000   1.0000   1.0000   1.0000   1.0000   1.0000   1.0000   1.0000
[...]
     atom   37 type  1   force =     0.00000000    0.00000000    0.00000000
     atom   38 type  1   force =     0.00000000    0.00000000    0.00000000
     atom   39 type  1   force =     0.00000000    0.00000000    0.00000000
     atom   40 type  1   force =     0.00000000    0.00000000    0.00000000
     atom   41 type  1   force =     0.00000000    0.00000000    0.00000000
     atom   42 type  1   force =     0.00000000    0.00000000    0.00000000
     atom   43 type  1   force =     0.00000000    0.00000000    0.00000000
     atom   44 type  1   force =     0.00000000    0.00000000    0.00000000
     atom   45 type  1   force =     0.00000000    0.00000000    0.00000000
     atom   46 type  1   force =     0.00000000    0.00000000    0.00000000
     atom   47 type  1   force =     0.00000000    0.00000000    0.00000000
     atom   48 type  1   force =     0.00000000    0.00000000    0.00000000
     atom   49 type  2   force =     0.00000000    0.00000000    0.00000000
     atom   50 type  2   force =     0.00000000    0.00000000    0.00000000
     atom   51 type  2   force =     0.00000000    0.00000000    0.00000000
     atom   52 type  2   force =     0.00000000    0.00000000    0.00000000
     atom   53 type  2   force =     0.00000000    0.00000000    0.00000000
     atom   54 type  2   force =     0.00000000    0.00000000    0.00000000
     atom   55 type  2   force =     0.00000000    0.00000000    0.00000000
     atom   56 type  2   force =     0.00000000    0.00000000    0.00000000
     atom   57 type  2   force =     0.00000000    0.00000000    0.00000000
     atom   58 type  2   force =     0.00000000    0.00000000    0.00000000
     atom   59 type  2   force =     0.00000000    0.00000000    0.00000000
     atom   60 type  2   force =     0.00000000    0.00000000    0.00000000
     atom   61 type  2   force =     0.00000000    0.00000000    0.00000000
     atom   62 type  2   force =     0.00000000    0.00000000    0.00000000
     atom   63 type  2   force =     0.00000000    0.00000000    0.00000000
     atom   64 type  2   force =     0.00000000    0.00000000    0.00000000
     atom   65 type  2   force =     0.00000000    0.00000000    0.00000000
     atom   66 type  2   force =     0.00000000    0.00000000    0.00000000
     atom   67 type  2   force =     0.00000000    0.00000000    0.00000000
     atom   68 type  2   force =     0.00000000    0.00000000    0.00000000
     atom   69 type  2   force =     0.00000000    0.00000000    0.00000000
     atom   70 type  2   force =     0.00000000    0.00000000    0.00000000
     atom   71 type  2   force =     0.00000000    0.00000000    0.00000000
     atom   72 type  2   force =     0.00000000    0.00000000    0.00000000
     atom   73 type  2   force =     0.00000000    0.00000000    0.00000000
     atom   74 type  2   force =     0.00000000    0.00000000    0.00000000
     atom   75 type  2   force =     0.00000000    0.00000000    0.00000000
     atom   76 type  2   force =     0.00000000    0.00000000    0.00000000
     atom   77 type  2   force =     0.00000000    0.00000000    0.00000000
     atom   78 type  2   force =     0.00000000    0.00000000    0.00000000
     atom   79 type  2   force =     0.00000000    0.00000000    0.00000000
     atom   80 type  2   force =     0.00000000    0.00000000    0.00000000
     atom   81 type  2   force =     0.00000000    0.00000000    0.00000000
     atom   82 type  2   force =     0.00000000    0.00000000    0.00000000
     atom   83 type  2   force =     0.00000000    0.00000000    0.00000000
     atom   84 type  2   force =     0.00000000    0.00000000    0.00000000
     atom   85 type  2   force =     0.00000000    0.00000000    0.00000000
     atom   86 type  2   force =     0.00000000    0.00000000    0.00000000
     atom   87 type  2   force =     0.00000000    0.00000000    0.00000000
     atom   88 type  2   force =     0.00000000    0.00000000    0.00000000
     atom   89 type  2   force =     0.00000000    0.00000000    0.00000000
     atom   90 type  2   force =     0.00000000    0.00000000    0.00000000
     atom   91 type  2   force =     0.00000000    0.00000000    0.00000000
     atom   92 type  2   force =     0.00000000    0.00000000    0.00000000
     atom   93 type  2   force =     0.00000000    0.00000000    0.00000000
     atom   94 type  2   force =     0.00000000    0.00000000    0.00000000
     atom   95 type  2   force =     0.00000000    0.00000000    0.00000000
     atom   96 type  2   force =     0.00000000    0.00000000    0.00000000
     atom   97 type  3   force =     0.00000000    0.00000000    0.00000000
     The SCF correction term to forces
     atom    1 type  1   force =     0.00000029   -0.00000020    0.00000006
     atom    2 type  1   force =     0.00000005   -0.00000001    0.00000004
     atom    3 type  1   force =    -0.00000011   -0.00000018    0.00000000
     atom    4 type  1   force =    -0.00000014    0.00000011   -0.00000003
     atom    5 type  1   force =     0.00000004   -0.00000010   -0.00000004
     atom    6 type  1   force =     0.00000002    0.00000023    0.00000001
     atom    7 type  1   force =    -0.00000012    0.00000019    0.00000005
     atom    8 type  1   force =    -0.00000029   -0.00000037    0.00000009
     atom    9 type  1   force =    -0.00000030   -0.00000057    0.00000006
     atom   10 type  1   force =    -0.00000029    0.00000001    0.00000001
     atom   11 type  1   force =     0.00000007    0.00000010   -0.00000004
     atom   12 type  1   force =    -0.00000011    0.00000006   -0.00000010
     atom   13 type  1   force =     0.00000004    0.00000016   -0.00000007
     atom   14 type  1   force =    -0.00000011    0.00000007    0.00000001
     atom   15 type  1   force =    -0.00000008   -0.00000043    0.00000006
     atom   16 type  1   force =    -0.00000015   -0.00000081    0.00000006
     atom   17 type  1   force =    -0.00000047    0.00000054   -0.00000001
     atom   18 type  1   force =     0.00000063    0.00000070    0.00000008
     atom   19 type  1   force =     0.00000043    0.00000007   -0.00000005
     atom   20 type  1   force =    -0.00000002    0.00000025   -0.00000013
     atom   21 type  1   force =     0.00000003   -0.00000020   -0.00000006
     atom   22 type  1   force =     0.00000018   -0.00000009   -0.00000001
     atom   23 type  1   force =     0.00000053    0.00000015    0.00000003
     atom   24 type  1   force =     0.00000106    0.00000061   -0.00000015
     atom   25 type  1   force =     0.00000200   -0.00000078    0.00000026
     atom   26 type  1   force =     0.00000042   -0.00000021    0.00000001
     atom   27 type  1   force =     0.00000003   -0.00000014   -0.00000007
     atom   28 type  1   force =     0.00000006   -0.00000005   -0.00000002
     atom   29 type  1   force =     0.00000000   -0.00000018    0.00000000
     atom   30 type  1   force =    -0.00000027    0.00000023    0.00000003
     atom   31 type  1   force =    -0.00000049    0.00000116    0.00000027
     atom   32 type  1   force =    -0.00000144   -0.00000130    0.00000043
     atom   33 type  1   force =    -0.00000018   -0.00000087    0.00000017
     atom   34 type  1   force =     0.00000004   -0.00000022    0.00000001
     atom   35 type  1   force =    -0.00000029    0.00000002   -0.00000000
     atom   36 type  1   force =     0.00000003    0.00000000   -0.00000001
     atom   37 type  1   force =     0.00000018    0.00000007    0.00000000
     atom   38 type  1   force =    -0.00000038    0.00000004    0.00000005
     atom   39 type  1   force =    -0.00000096   -0.00000036    0.00000013
     atom   40 type  1   force =    -0.00000016   -0.00000059    0.00000011
     atom   41 type  1   force =    -0.00000030   -0.00000033    0.00000004
     atom   42 type  1   force =     0.00000015    0.00000008    0.00000001
     atom   43 type  1   force =    -0.00000015    0.00000015    0.00000002
     atom   44 type  1   force =    -0.00000004   -0.00000014    0.00000001
     atom   45 type  1   force =     0.00000002    0.00000004   -0.00000001
     atom   46 type  1   force =    -0.00000001   -0.00000014   -0.00000001
     atom   47 type  1   force =    -0.00000015    0.00000022    0.00000003
     atom   48 type  1   force =     0.00000043   -0.00000009    0.00000004
     atom   49 type  2   force =    -0.00000012   -0.00000040    0.00000001
     atom   50 type  2   force =    -0.00000001   -0.00000052    0.00000003
     atom   51 type  2   force =    -0.00000015   -0.00000030   -0.00000005
     atom   52 type  2   force =    -0.00000014    0.00000010   -0.00000009
     atom   53 type  2   force =    -0.00000013    0.00000032   -0.00000015
     atom   54 type  2   force =     0.00000023    0.00000011   -0.00000012
     atom   55 type  2   force =    -0.00000017    0.00000041   -0.00000002
     atom   56 type  2   force =    -0.00000051   -0.00000072    0.00000014
     atom   57 type  2   force =    -0.00000098   -0.00000136    0.00000016
     atom   58 type  2   force =    -0.00000119   -0.00000040    0.00000002
     atom   59 type  2   force =     0.00000030    0.00000053    0.00000005
     atom   60 type  2   force =     0.00000002    0.00000025   -0.00000018
     atom   61 type  2   force =    -0.00000006    0.00000025   -0.00000019
     atom   62 type  2   force =    -0.00000011   -0.00000025   -0.00000008
     atom   63 type  2   force =    -0.00000003   -0.00000046   -0.00000002
     atom   64 type  2   force =     0.00000047   -0.00000079    0.00000017
     atom   65 type  2   force =    -0.00000004    0.00000002   -0.00000005
     atom   66 type  2   force =     0.00000043    0.00000358    0.00000050
     atom   67 type  2   force =     0.00000277    0.00000050    0.00000024
     atom   68 type  2   force =     0.00000055    0.00000010   -0.00000015
     atom   69 type  2   force =    -0.00000010   -0.00000046   -0.00000023
     atom   70 type  2   force =     0.00000051    0.00000011   -0.00000011
     atom   71 type  2   force =     0.00000069    0.00000027    0.00000004
     atom   72 type  2   force =     0.00000203    0.00000040    0.00000006
     atom   73 type  2   force =     0.00000040    0.00000039    0.00000016
     atom   74 type  2   force =     0.00000132   -0.00000201    0.00000034
     atom   75 type  2   force =     0.00000054   -0.00000033   -0.00000009
     atom   76 type  2   force =     0.00000001   -0.00000005   -0.00000002
     atom   77 type  2   force =     0.00000024   -0.00000020   -0.00000003
     atom   78 type  2   force =    -0.00000045    0.00000016    0.00000013
     atom   79 type  2   force =    -0.00000123    0.00000077    0.00000043
     atom   80 type  2   force =    -0.00000221   -0.00000057    0.00000056
     atom   81 type  2   force =    -0.00000124   -0.00000250    0.00000054
     atom   82 type  2   force =    -0.00000044   -0.00000060    0.00000008
     atom   83 type  2   force =    -0.00000039    0.00000006   -0.00000013
     atom   84 type  2   force =    -0.00000023    0.00000004   -0.00000001
     atom   85 type  2   force =     0.00000017   -0.00000024    0.00000001
     atom   86 type  2   force =    -0.00000008    0.00000013    0.00000009
     atom   87 type  2   force =    -0.00000094   -0.00000018    0.00000015
     atom   88 type  2   force =    -0.00000071   -0.00000061    0.00000018
     atom   89 type  2   force =    -0.00000002   -0.00000035    0.00000006
     atom   90 type  2   force =     0.00000054   -0.00000006    0.00000000
     atom   91 type  2   force =    -0.00000009   -0.00000005   -0.00000000
     atom   92 type  2   force =    -0.00000038   -0.00000035   -0.00000001
     atom   93 type  2   force =    -0.00000036    0.00000000   -0.00000001
     atom   94 type  2   force =     0.00000010   -0.00000017   -0.00000009
     atom   95 type  2   force =    -0.00000013    0.00000030   -0.00000004
     atom   96 type  2   force =     0.00000031    0.00000031   -0.00000006
     atom   97 type  3   force =     0.00000113    0.00001395   -0.00000214

     Total force =     0.002543     Total SCF correction =     0.000017

     bfgs converged in  30 scf cycles and  29 bfgs steps
     (criteria: energy <  1.0E-05 Ry, force <  1.0E-03 Ry/Bohr)

     End of BFGS Geometry Optimization

     Final energy   =   -1350.2823053798 Ry
Begin final coordinates

ATOMIC_POSITIONS (crystal)
B        0.047694805   0.094606051   0.496400363
B        0.047664647   0.237452989   0.496253192
B        0.047428254   0.380503688   0.496356193
B        0.047130080   0.523535312   0.495874758
B        0.047076509   0.666352521   0.496098993
B        0.047095521   0.809028944   0.496784797
B        0.047435618   0.951853127   0.496672173
B        0.191317050   0.095665154   0.499055006
B        0.190382224   0.237388356   0.501161686
B        0.189808982   0.380557185   0.502555948
B        0.189232178   0.523860538   0.500678687
B        0.189713843   0.666681540   0.497719193
B        0.189909441   0.809370559   0.495988572
B        0.190254299   0.952189245   0.496415733
B        0.333432147   0.095138840   0.498488707
B        0.335732452   0.239638270   0.505757007
B        0.331524016   0.380399371   0.512922870
B        0.330564688   0.524111820   0.514651401
B        0.332233588   0.667014158   0.504149702
B        0.332599872   0.809572685   0.497764588
B        0.332920632   0.952201100   0.495991828
B        0.476048096   0.094539987   0.496027729
B        0.476680753   0.237063223   0.499435412
B        0.482935680   0.383035596   0.507638404
B        0.474979540   0.668497505   0.512885757
B        0.475415072   0.810015332   0.500308781
B        0.475742228   0.952148585   0.496036643
B        0.618962330   0.094245579   0.495038430
B        0.619333802   0.236460117   0.495678057
B        0.620722158   0.378475987   0.499198574
B        0.616263974   0.516157741   0.508016049
B        0.618831677   0.667583834   0.511027392
B        0.618675109   0.809383226   0.501635285
B        0.618769675   0.951850251   0.496373236
B        0.761956153   0.094387198   0.494586148
B        0.762180901   0.237080425   0.494536401
B        0.762783871   0.379907271   0.495818615
B        0.762232890   0.522561350   0.499815072
B        0.759668756   0.663540994   0.505855170
B        0.761880732   0.808892494   0.501026222
B        0.761820343   0.951623507   0.496321272
B        0.904830243   0.094463202   0.494674392
B        0.904915430   0.237328528   0.494399515
B        0.905019985   0.380286575   0.494865345
B        0.904742093   0.523200356   0.496252446
B        0.904152333   0.665829633   0.499117731
B        0.903630627   0.807973942   0.499551801
B        0.904693281   0.951614593   0.496627564
N        0.095832090   0.047584427   0.496922468
N        0.095581493   0.189943124   0.497230351
N        0.095209334   0.332841825   0.497669826
N        0.094550078   0.475808706   0.496862283
N        0.094560456   0.618742477   0.496075539
N        0.094594181   0.761529628   0.496049054
N        0.094936886   0.904340477   0.496361256
N        0.238469339   0.047882591   0.497850502
N        0.240315880   0.191972509   0.502919597
N        0.237668301   0.332431540   0.504422160
N        0.236640905   0.476016263   0.505225434
N        0.237250848   0.619005383   0.500932028
N        0.237458803   0.761825872   0.496910898
N        0.237746282   0.904680203   0.495846797
N        0.380921340   0.047708683   0.496432539
N        0.382019510   0.191364457   0.501716826
N        0.386705119   0.338605959   0.511081607
N        0.374357631   0.473342076   0.526539002
N        0.379856868   0.619285121   0.512049396
N        0.380276778   0.762022970   0.500797226
N        0.380539045   0.904720341   0.496274256
N        0.523695776   0.047262709   0.495347741
N        0.524112354   0.190004580   0.496529636
N        0.525621983   0.333297413   0.500907689
N        0.525622906   0.624353509   0.522679416
N        0.523203444   0.762501117   0.504053732
N        0.523475010   0.904717041   0.496915230
N        0.666640869   0.046861633   0.495173232
N        0.666839252   0.189443449   0.494836249
N        0.667414423   0.331817644   0.496356638
N        0.666007756   0.473544583   0.501317243
N        0.660667500   0.612473897   0.510590193
N        0.666800329   0.761518075   0.503428504
N        0.666412578   0.904038945   0.497455127
N        0.809528861   0.046718901   0.494706438
N        0.809677848   0.189614751   0.494243596
N        0.809811787   0.332417083   0.494761241
N        0.809282159   0.475139495   0.496859357
N        0.807925315   0.617239419   0.502183475
N        0.807293323   0.758956652   0.503012034
N        0.809338288   0.903711650   0.497430273
N        0.952461617   0.046831963   0.495444538
N        0.952568466   0.189748019   0.494489341
N        0.952415046   0.332628817   0.494921243
N        0.952011172   0.475562862   0.495283240
N        0.951564857   0.618332437   0.496814617
N        0.951395685   0.760801583   0.498617654
N        0.951697768   0.903456849   0.497374851
Ti       0.486283377   0.514361381   0.571609588
End final coordinates



     Writing output data file BN.save
 
     init_run     :      4.75s CPU      5.37s WALL (       1 calls)
     electrons    :   2622.45s CPU   3119.98s WALL (      30 calls)
     update_pot   :     81.96s CPU    125.66s WALL (      29 calls)
     forces       :     81.66s CPU    105.15s WALL (      30 calls)

     Called by init_run:
     wfcinit      :      2.42s CPU      2.70s WALL (       1 calls)
     wfcinit:atom :      0.02s CPU      0.03s WALL (       1 calls)
     wfcinit:wfcr :      2.32s CPU      2.53s WALL (       1 calls)
     potinit      :      0.55s CPU      0.59s WALL (       1 calls)

     Called by electrons:
     c_bands      :   1880.94s CPU   2040.16s WALL (     399 calls)
     sum_band     :    383.95s CPU    530.79s WALL (     399 calls)
     v_of_rho     :     66.04s CPU     71.78s WALL (     409 calls)
     v_h          :      2.34s CPU      2.42s WALL (     409 calls)
     v_xc         :     63.69s CPU     69.35s WALL (     409 calls)
     mix_rho      :     23.34s CPU     24.12s WALL (     399 calls)

     Called by c_bands:
     init_us_2    :     28.78s CPU     29.07s WALL (     799 calls)
     cegterg      :   1742.08s CPU   1841.99s WALL (     399 calls)

     Called by sum_band:

     Called by *egterg:
     h_psi        :   1099.15s CPU   1118.73s WALL (    1930 calls)
     g_psi        :      5.86s CPU      5.90s WALL (    1530 calls)
     cdiaghg      :    103.68s CPU    128.27s WALL (    1880 calls)
     cegterg:over :    177.93s CPU    179.68s WALL (    1530 calls)
     cegterg:upda :    224.70s CPU    227.60s WALL (    1530 calls)
     cegterg:last :     72.12s CPU     73.12s WALL (     409 calls)
     cdiaghg:chol :      4.47s CPU      5.84s WALL (    1880 calls)
     cdiaghg:inve :      0.67s CPU      0.75s WALL (    1880 calls)
     cdiaghg:para :     11.55s CPU     14.35s WALL (    3760 calls)

     Called by h_psi:
     h_psi:pot    :   1081.12s CPU   1100.52s WALL (    1930 calls)
     h_psi:calbec :    225.29s CPU    227.86s WALL (    1930 calls)
     vloc_psi     :    622.37s CPU    639.02s WALL (    1930 calls)
     add_vuspsi   :    233.43s CPU    233.61s WALL (    1930 calls)

     General routines
     calbec       :    250.16s CPU    252.92s WALL (    2050 calls)
     fft          :     55.51s CPU     66.25s WALL (    8639 calls)
     fftw         :    644.75s CPU    663.74s WALL (  535616 calls)
 
     Parallel routines
     fft_scatter  :    286.80s CPU    309.39s WALL (  544255 calls)
 
     PWSCF        : 47m17.10s CPU    57m42.97s WALL

 
   This run was terminated on:  18:17:12   9Mar2020            

=------------------------------------------------------------------------------=
   JOB DONE.
=------------------------------------------------------------------------------=
