
                                 *****************
                                 * O   R   C   A *
                                 *****************

           --- An Ab Initio, DFT and Semiempirical electronic structure package ---

                  #######################################################
                  #                        -***-                        #
                  #          Department of theory and spectroscopy      #
                  #               Directorship: Frank Neese             #
                  #        Max Planck Institute fuer Kohlenforschung    #
                  #                Kaiser Wilhelm Platz 1               #
                  #                 D-45470 Muelheim/Ruhr               #
                  #                      Germany                        #
                  #                                                     #
                  #                  All rights reserved                #
                  #                        -***-                        #
                  #######################################################


                         Program Version 4.2.1 -  RELEASE  -


 With contributions from (in alphabetic order):
   Daniel Aravena         : Magnetic Suceptibility
   Michael Atanasov       : Ab Initio Ligand Field Theory (pilot matlab implementation)
   Alexander A. Auer      : GIAO ZORA, VPT2
   Ute Becker             : Parallelization
   Giovanni Bistoni       : ED, misc. LED, open-shell LED, HFLD
   Martin Brehm           : Molecular dynamics
   Dmytro Bykov           : SCF Hessian
   Vijay G. Chilkuri      : MRCI spin determinant printing, contributions to CSF-ICE
   Dipayan Datta          : RHF DLPNO-CCSD density
   Achintya Kumar Dutta   : EOM-CC, STEOM-CC
   Dmitry Ganyushin       : Spin-Orbit,Spin-Spin,Magnetic field MRCI
   Miquel Garcia          : C-PCM Hessian, Gaussian charge scheme
   Yang Guo               : DLPNO-NEVPT2, CIM, IAO-localization
   Andreas Hansen         : Spin unrestricted coupled pair/coupled cluster methods
   Benjamin Helmich-Paris : CASSCF linear response (MC-RPA)
   Lee Huntington         : MR-EOM, pCC
   Robert Izsak           : Overlap fitted RIJCOSX, COSX-SCS-MP3, EOM
   Christian Kollmar      : KDIIS, OOCD, Brueckner-CCSD(T), CCSD density
   Simone Kossmann        : Meta GGA functionals, TD-DFT gradient, OOMP2, MP2 Hessian
   Martin Krupicka        : AUTO-CI
   Lucas Lang             : DCDCAS
   Dagmar Lenk            : GEPOL surface, SMD
   Dimitrios Liakos       : Extrapolation schemes; Compound Job, initial MDCI parallelization
   Dimitrios Manganas     : Further ROCIS development; embedding schemes
   Dimitrios Pantazis     : SARC Basis sets
   Taras Petrenko         : DFT Hessian,TD-DFT gradient, ASA, ECA, R-Raman, ABS, FL, XAS/XES, NRVS
   Peter Pinski           : DLPNO-MP2, DLPNO-MP2 Gradient
   Christoph Reimann      : Effective Core Potentials
   Marius Retegan         : Local ZFS, SOC
   Christoph Riplinger    : Optimizer, TS searches, QM/MM, DLPNO-CCSD(T), (RO)-DLPNO pert. Triples
   Tobias Risthaus        : Range-separated hybrids, TD-DFT gradient, RPA, STAB
   Michael Roemelt        : Original ROCIS implementation
   Masaaki Saitow         : Open-shell DLPNO-CCSD energy and density
   Barbara Sandhoefer     : DKH picture change effects
   Avijit Sen             : IP-ROCIS
   Kantharuban Sivalingam : CASSCF convergence, NEVPT2, FIC-MRCI
   Bernardo de Souza      : ESD, SOC TD-DFT
   Georgi Stoychev        : AutoAux, RI-MP2 NMR
   Willem Van den Heuvel  : Paramagnetic NMR
   Boris Wezisla          : Elementary symmetry handling
   Frank Wennmohs         : Technical directorship


 We gratefully acknowledge several colleagues who have allowed us to
 interface, adapt or use parts of their codes:
   Stefan Grimme, W. Hujo, H. Kruse,             : VdW corrections, initial TS optimization,
                  C. Bannwarth                     DFT functionals, gCP, sTDA/sTD-DF
   Ed Valeev, F. Pavosevic, A. Kumar             : LibInt (2-el integral package), F12 methods
   Garnet Chan, S. Sharma, J. Yang, R. Olivares  : DMRG
   Ulf Ekstrom                                   : XCFun DFT Library
   Mihaly Kallay                                 : mrcc  (arbitrary order and MRCC methods)
   Andreas Klamt, Michael Diedenhofen            : otool_cosmo (COSMO solvation model)
   Jiri Pittner, Ondrej Demel                    : Mk-CCSD
   Frank Weinhold                                : gennbo (NPA and NBO analysis)
   Christopher J. Cramer and Donald G. Truhlar   : smd solvation model
   Lars Goerigk                                  : TD-DFT with DH, B97 family of functionals
   V. Asgeirsson, H. Jonsson                     : NEB implementation
   FAccTs GmbH                                   : IRC, NEB, NEB-TS, Multilevel, MM, QM/MM, CI optimization
   S Lehtola, MJT Oliveira, MAL Marques          : LibXC Library


 Your calculation uses the libint2 library for the computation of 2-el integrals
 For citations please refer to: http://libint.valeyev.net

 Your ORCA version has been built with support for libXC version: 4.2.3
 For citations please refer to: https://tddft.org/programs/libxc/

 This ORCA versions uses:
   CBLAS   interface :  Fast vector & matrix operations
   LAPACKE interface :  Fast linear algebra routines
   SCALAPACK package :  Parallel linear algebra routines




***************************************
The coordinates will be read from file: nv.xyz
***************************************


----- Orbital basis set information -----
Your calculation utilizes the basis: EPR-II
   V. Barone, in Recent Advances in Density Functional Methods, Part 1 (ed. D. P. Chong), World Scientific, Singapore, 1995, p. 287.

----- AuxJ basis set information -----
Your calculation utilizes the AutoAux generation procedure.
  G. L. Stoychev, A. A. Auer, F. Neese, J. Chem. Theory Comput. 13, 554 (2017)

----- AuxC basis set information -----
Your calculation utilizes the AutoAux generation procedure.
  G. L. Stoychev, A. A. Auer, F. Neese, J. Chem. Theory Comput. 13, 554 (2017)

----- AuxJK basis set information -----
Your calculation utilizes the AutoAux generation procedure.
  G. L. Stoychev, A. A. Auer, F. Neese, J. Chem. Theory Comput. 13, 554 (2017)

================================================================================
                                        WARNINGS
                       Please study these warnings very carefully!
================================================================================


WARNING: your system is open-shell and RHF/RKS was chosen
  ===> : WILL SWITCH to UHF/UKS


INFO   : the flag for use of LIBINT has been found!

================================================================================
                                       INPUT FILE
================================================================================
NAME = zfs.in
|  1> # Use EPR-II is a special basis set for epr, autoaux creates a large auxiliary basis
|  2> !PBE EPR-II AUTOAUX RIJCOSX
|  3> 
|  4> # use original (unoptimized) cluster xyz
|  5> *xyzfile -1 3 nv.xyz
|  6> 
|  7> # Parallelization
|  8> %PAL NPROCS 72 END
|  9> 
| 10> # ZFS calculation
| 11> %EPRNMR DTENSOR SSANDSO
| 12>     DSS     UNO
| 13>     DSOC    CP
| 14> END
| 15> 
| 16>                          ****END OF INPUT****
================================================================================

                       ****************************
                       * Single Point Calculation *
                       ****************************

---------------------------------
CARTESIAN COORDINATES (ANGSTROEM)
---------------------------------
  C      0.250824    1.519039   -2.249811
  C      1.362313    0.512804   -4.258023
  C     -2.244329    1.842012   -2.199697
  C     -0.473006   -2.864578   -2.199804
  C      2.717356    1.022726   -2.199700
  C     -2.469145    0.400362   -0.144983
  C      2.466782   -0.414671   -0.144986
  C     -1.592507   -1.928956   -0.145035
  C      1.581293    1.938168   -0.144933
  C     -0.874274    2.343637   -0.144931
  C      0.887854   -2.338519   -0.145037
  C      1.330754    0.500819    0.395617
  C     -0.231648   -1.402893    0.395566
  C     -1.099110    0.902045    0.395618
  C     -1.365667   -0.513881   -3.737621
  C      0.237737    1.439790   -3.737569
  C      1.127964   -0.925636   -3.737623
  C     -2.468209    0.400962   -1.693673
  C      2.466086   -0.413801   -1.693676
  C     -1.591432   -1.928727   -1.693726
  C      1.581318    1.937118   -1.693623
  C     -0.874639    2.342651   -1.693621
  C      0.886906   -2.337956   -1.693727
  C     -1.440881   -0.542222   -2.249865
  C      1.190077   -0.976653   -2.249867
  C     -1.125150    0.923541   -4.258021
  C     -0.237125   -1.436035   -4.258075
  N      0.000000    0.000000    0.000000
  H      2.308607    0.868933   -3.907906
  H      1.355607    0.510305   -5.328003
  H     -2.257896    1.853175   -3.269544
  H     -3.021389    2.479746   -1.833101
  H     -0.636384   -3.854018   -1.826663
  H     -0.477006   -2.888792   -3.269519
  H      2.733789    1.028935   -3.269548
  H      3.658185    1.376798   -1.833106
  H     -2.644925   -0.594478    0.207581
  H     -3.241357    1.054178    0.203028
  H      3.409881   -0.052755    0.207839
  H      2.304313   -1.413454    0.202756
  H     -1.750623   -2.926675    0.207753
  H     -2.376239   -1.288874    0.202744
  H      0.807632    2.587804    0.207668
  H      2.533625    2.280000    0.203076
  H     -1.659260    2.979416    0.207895
  H      0.071924    2.702314    0.202848
  H      1.837291   -1.993341    0.207562
  H      0.707730   -3.334194    0.202936
  H      1.342443    0.505194    1.465539
  H     -0.233686   -1.415244    1.465488
  H     -1.108770    0.909944    1.465541
  H     -2.306183   -0.867835   -4.105093
  H      0.401455    2.431292   -4.105005
  H      1.904765   -1.563158   -4.105096
  H     -3.418408    0.051259   -2.039696
  H      3.253422   -1.050411   -2.039701
  H     -2.536425   -2.292261   -2.039749
  H      1.753560    2.934880   -2.039611
  H     -0.716978    3.342821   -2.039609
  H      1.664867   -2.985990   -2.039752
  H     -1.119782    0.919164   -5.328007
  H     -1.906672    1.564937   -3.907684
  H     -0.401849   -2.433627   -3.907994
  H     -0.235954   -1.428935   -5.328055

----------------------------
CARTESIAN COORDINATES (A.U.)
----------------------------
  NO LB      ZA    FRAG     MASS         X           Y           Z
   0 C     6.0000    0    12.011    0.473989    2.870568   -4.251526
   1 C     6.0000    0    12.011    2.574399    0.969060   -8.046497
   2 C     6.0000    0    12.011   -4.241168    3.480898   -4.156825
   3 C     6.0000    0    12.011   -0.893852   -5.413267   -4.157026
   4 C     6.0000    0    12.011    5.135058    1.932672   -4.156831
   5 C     6.0000    0    12.011   -4.666008    0.756575   -0.273977
   6 C     6.0000    0    12.011    4.661543   -0.783614   -0.273984
   7 C     6.0000    0    12.011   -3.009403   -3.645198   -0.274077
   8 C     6.0000    0    12.011    2.988210    3.662606   -0.273883
   9 C     6.0000    0    12.011   -1.652138    4.428832   -0.273880
  10 C     6.0000    0    12.011    1.677801   -4.419161   -0.274081
  11 C     6.0000    0    12.011    2.514761    0.946411    0.747607
  12 C     6.0000    0    12.011   -0.437751   -2.651083    0.747512
  13 C     6.0000    0    12.011   -2.077017    1.704618    0.747611
  14 C     6.0000    0    12.011   -2.580736   -0.971095   -7.063080
  15 C     6.0000    0    12.011    0.449258    2.720808   -7.062982
  16 C     6.0000    0    12.011    2.131543   -1.749198   -7.063084
  17 C     6.0000    0    12.011   -4.664239    0.757708   -3.200578
  18 C     6.0000    0    12.011    4.660227   -0.781971   -3.200585
  19 C     6.0000    0    12.011   -3.007370   -3.644765   -3.200678
  20 C     6.0000    0    12.011    2.988259    3.660622   -3.200484
  21 C     6.0000    0    12.011   -1.652827    4.426970   -3.200481
  22 C     6.0000    0    12.011    1.676010   -4.418097   -3.200681
  23 C     6.0000    0    12.011   -2.722870   -1.024652   -4.251629
  24 C     6.0000    0    12.011    2.248920   -1.845607   -4.251633
  25 C     6.0000    0    12.011   -2.126225    1.745239   -8.046494
  26 C     6.0000    0    12.011   -0.448101   -2.713712   -8.046595
  27 N     7.0000    0    14.007    0.000000    0.000000    0.000000
  28 H     1.0000    0     1.008    4.362634    1.642045   -7.384872
  29 H     1.0000    0     1.008    2.561727    0.964337  -10.068467
  30 H     1.0000    0     1.008   -4.266805    3.501993   -6.178543
  31 H     1.0000    0     1.008   -5.709598    4.686041   -3.464060
  32 H     1.0000    0     1.008   -1.202592   -7.283038   -3.451893
  33 H     1.0000    0     1.008   -0.901410   -5.459025   -6.178495
  34 H     1.0000    0     1.008    5.166112    1.944406   -6.178550
  35 H     1.0000    0     1.008    6.912968    2.601771   -3.464069
  36 H     1.0000    0     1.008   -4.998183   -1.123400    0.392271
  37 H     1.0000    0     1.008   -6.125276    1.992109    0.383668
  38 H     1.0000    0     1.008    6.443742   -0.099693    0.392758
  39 H     1.0000    0     1.008    4.354520   -2.671042    0.383154
  40 H     1.0000    0     1.008   -3.308198   -5.530615    0.392597
  41 H     1.0000    0     1.008   -4.490441   -2.435619    0.383131
  42 H     1.0000    0     1.008    1.526202    4.890240    0.392436
  43 H     1.0000    0     1.008    4.787857    4.308576    0.383759
  44 H     1.0000    0     1.008   -3.135548    5.630280    0.392864
  45 H     1.0000    0     1.008    0.135917    5.106633    0.383326
  46 H     1.0000    0     1.008    3.471977   -3.766869    0.392235
  47 H     1.0000    0     1.008    1.337416   -6.300713    0.383494
  48 H     1.0000    0     1.008    2.536850    0.954677    2.769468
  49 H     1.0000    0     1.008   -0.441603   -2.674424    2.769372
  50 H     1.0000    0     1.008   -2.095272    1.719545    2.769471
  51 H     1.0000    0     1.008   -4.358054   -1.639971   -7.757501
  52 H     1.0000    0     1.008    0.758641    4.594476   -7.757336
  53 H     1.0000    0     1.008    3.599484   -2.953940   -7.757507
  54 H     1.0000    0     1.008   -6.459855    0.096865   -3.854467
  55 H     1.0000    0     1.008    6.148077   -1.984989   -3.854476
  56 H     1.0000    0     1.008   -4.793149   -4.331746   -3.854568
  57 H     1.0000    0     1.008    3.313748    5.546119   -3.854305
  58 H     1.0000    0     1.008   -1.354893    6.317017   -3.854302
  59 H     1.0000    0     1.008    3.146143   -5.642702   -3.854573
  60 H     1.0000    0     1.008   -2.116081    1.736968  -10.068475
  61 H     1.0000    0     1.008   -3.603088    2.957303   -7.384452
  62 H     1.0000    0     1.008   -0.759384   -4.598888   -7.385038
  63 H     1.0000    0     1.008   -0.445888   -2.700297  -10.068564

--------------------------------
INTERNAL COORDINATES (ANGSTROEM)
--------------------------------
 C      0   0   0     0.000000000000     0.00000000     0.00000000
 C      1   0   0     2.506159188275     0.00000000     0.00000000
 C      1   2   0     2.516468737748   120.47980033     0.00000000
 C      2   1   3     4.360203421796    75.28951497   283.77948096
 C      1   2   3     2.516468891952    60.13666440   174.71907255
 C      3   1   2     2.520068779987    91.79194710   121.28833102
 C      5   1   2     2.520068762641    91.79201993   236.05607762
 C      6   3   1     2.488818367192   120.26272269   304.19020215
 C      7   5   1     2.513948948081    60.08027954   306.41229828
 C      9   7   5     2.488817352411   120.00002879   109.82545099
 C      7   5   1     2.488816776904   120.26270159    55.80983233
 C      7   5   1     1.555934702653    91.16206223   325.68709313
 C      8   6   3     1.555934052192    89.52038817    91.06561730
 C      6   3   1     1.555934061345    91.16212212    34.31292445
 C      3   1   2     2.947455098891    65.88562639    32.41919379
 C      1   2   3     1.489925410409    35.15414079   323.08151360
 C      2   1   3     1.547529031371    92.09616882   273.73521374
 C      3   1   2     1.543634497452    91.74891422    85.78589531
 C      5   1   2     1.543634474866    91.74900365   271.55851520
 C      4   2   1     1.543634426164    89.43441785    30.89183769
 C      1   2   3     1.501448810241    90.89532351   191.81515950
 C      1   2   3     1.501449344528   148.15946931   329.09681936
 C      4   2   1     1.543633746779    61.29331667   278.87882689
 C     15   3   1     1.489925437902    58.60967737    79.25168916
 C     17   2   1     1.489925476671   111.18022710   326.95804089
 C     16   1   2     1.547528290176   111.18021290   121.75553488
 C     17   2   1     1.547528292139   109.09004217    89.92306829
 N     12   7   5     1.475886139094   111.44049748    93.52608412
 H      2   1   3     1.069990716964    89.79352603   164.26253076
 H      2   1   3     1.070004294790   143.07770566    40.86734296
 H      3   1   2     1.069991509770    89.65616664   336.17389651
 H      3   1   2     1.070008907403   143.45442866   213.40182394
 H      4   2   1     1.070008630008   160.93593849   213.27452149
 H      4   2   1     1.069996784554    63.07524129   143.53512802
 H     29   2   1     0.783506147842   144.53757488    32.14134790
 H      5   1   2     1.070008457050   143.45441154   143.94258782
 H      6   3   1     1.070002931735   144.60622174   267.56155987
 H      6   3   1     1.069998801467    88.85452189   143.28877488
 H      7   5   1     1.070001690474    89.32902229   216.43024002
 H      7   5   1     1.069995564362   144.34073002    91.60649884
 H      8   6   3     1.070002207266   145.14813578   215.49452432
 H     37   6   3     0.744581473074   143.67474246    62.06104370
 H      9   7   5     1.070002897276   145.37732652   145.27378865
 H      9   7   5     1.069998337316    89.16959387   270.84373779
 H     10   9   7     1.070002154285   145.14812963   144.76011296
 H     43   9   7     0.744581167731   143.67473629   300.54055364
 H     40   7   5     0.744581002505   145.51897278   298.58473548
 H     11   7   5     1.069998827164   145.69948105   144.51454589
 H     12   7   5     1.069995472812   109.98972405   211.05044889
 H     13   8   6     1.069995477083   109.98975805    90.79100384
 H     14   6   3     1.069995466054   109.98975815   148.94952881
 H     15   3   1     1.069995020535   100.46116416   182.87308406
 H     16   1   2     1.069995529953   106.99377721   240.87773466
 H     17   2   1     1.069995470131   109.17096223   209.14698707
 H     18   3   1     1.070001082700   109.14081205   209.46733767
 H     19   5   1     1.070001543888   109.14088145   150.53266269
 H     20   4   2     1.070001076679   109.14085338   120.92648834
 H     21   1   2     1.070001583693   106.41034517    92.35939563
 H     22   1   2     1.070001595907   106.41041642   291.94871452
 H     23   4   2     1.070001548862   109.14085332   258.30749266
 H     26  16   1     1.070008557446   109.46621822   177.47400827
 H     31   3   1     0.783365299377   143.60830347    31.99437339
 H     34   4   2     0.787701494261   142.83583392   341.07939119
 H     27  17   2     1.070004297030   109.46009777    59.54970989

---------------------------
INTERNAL COORDINATES (A.U.)
---------------------------
 C      0   0   0     0.000000000000     0.00000000     0.00000000
 C      1   0   0     4.735954513849     0.00000000     0.00000000
 C      1   2   0     4.755436738918   120.47980033     0.00000000
 C      2   1   3     8.239590355381    75.28951497   283.77948096
 C      1   2   3     4.755437030322    60.13666440   174.71907255
 C      3   1   2     4.762239832821    91.79194710   121.28833102
 C      5   1   2     4.762239800042    91.79201993   236.05607762
 C      6   3   1     4.703185111066   120.26272269   304.19020215
 C      7   5   1     4.750675026532    60.08027954   306.41229828
 C      9   7   5     4.703183193408   120.00002879   109.82545099
 C      7   5   1     4.703182105857   120.26270159    55.80983233
 C      7   5   1     2.940290470278    91.16206223   325.68709313
 C      8   6   3     2.940289241085    89.52038817    91.06561730
 C      6   3   1     2.940289258383    91.16212212    34.31292445
 C      3   1   2     5.569882928933    65.88562639    32.41919379
 C      1   2   3     2.815550985643    35.15414079   323.08151360
 C      2   1   3     2.924406053583    92.09616882   273.73521374
 C      3   1   2     2.917046451057    91.74891422    85.78589531
 C      5   1   2     2.917046408376    91.74900365   271.55851520
 C      4   2   1     2.917046316342    89.43441785    30.89183769
 C      1   2   3     2.837327055457    90.89532351   191.81515950
 C      1   2   3     2.837328065113   148.15946931   329.09681936
 C      4   2   1     2.917045032492    61.29331667   278.87882689
 C     15   3   1     2.815551037598    58.60967737    79.25168916
 C     17   2   1     2.815551110859   111.18022710   326.95804089
 C     16   1   2     2.924404652928   111.18021290   121.75553488
 C     17   2   1     2.924404656637   109.09004217    89.92306829
 N     12   7   5     2.789020607738   111.44049748    93.52608412
 H      2   1   3     2.021989420899    89.79352603   164.26253076
 H      2   1   3     2.022015079274   143.07770566    40.86734296
 H      3   1   2     2.021990919085    89.65616664   336.17389651
 H      3   1   2     2.022023795848   143.45442866   213.40182394
 H      4   2   1     2.022023271648   160.93593849   213.27452149
 H      4   2   1     2.022000886983    63.07524129   143.53512802
 H     29   2   1     1.480612043666   144.53757488    32.14134790
 H      5   1   2     2.022022944804   143.45441154   143.94258782
 H      6   3   1     2.022012503472   144.60622174   267.56155987
 H      6   3   1     2.022004698397    88.85452189   143.28877488
 H      7   5   1     2.022010157829    89.32902229   216.43024002
 H      7   5   1     2.021998581154   144.34073002    91.60649884
 H      8   6   3     2.022011134423   145.14813578   215.49452432
 H     37   6   3     1.407055068501   143.67474246    62.06104370
 H      9   7   5     2.022012438354   145.37732652   145.27378865
 H      9   7   5     2.022003821278    89.16959387   270.84373779
 H     10   9   7     2.022011034304   145.14812963   144.76011296
 H     43   9   7     1.407054491487   143.67473629   300.54055364
 H     40   7   5     1.407054179255   145.51897278   298.58473548
 H     11   7   5     2.022004746957   145.69948105   144.51454589
 H     12   7   5     2.021998408150   109.98972405   211.05044889
 H     13   8   6     2.021998416222   109.98975805    90.79100384
 H     14   6   3     2.021998395380   109.98975815   148.94952881
 H     15   3   1     2.021997553471   100.46116416   182.87308406
 H     16   1   2     2.021998516130   106.99377721   240.87773466
 H     17   2   1     2.021998403084   109.17096223   209.14698707
 H     18   3   1     2.022009009302   109.14081205   209.46733767
 H     19   5   1     2.022009880821   109.14088145   150.53266269
 H     20   4   2     2.022008997925   109.14085338   120.92648834
 H     21   1   2     2.022009956042   106.41034517    92.35939563
 H     22   1   2     2.022009979123   106.41041642   291.94871452
 H     23   4   2     2.022009890222   109.14085332   258.30749266
 H     26  16   1     2.022023134526   109.46621822   177.47400827
 H     31   3   1     1.480345878640   143.60830347    31.99437339
 H     34   4   2     1.488540099433   142.83583392   341.07939119
 H     27  17   2     2.022015083506   109.46009777    59.54970989

---------------------
BASIS SET INFORMATION
---------------------
There are 3 groups of distinct atoms

 Group   1 Type C   : 10s5p1d contracted to 6s2p1d pattern {511111/41/1}
 Group   2 Type N   : 10s5p1d contracted to 6s2p1d pattern {511111/41/1}
 Group   3 Type H   : 6s1p contracted to 4s1p pattern {3111/1}

Atom   0C    basis set group =>   1
Atom   1C    basis set group =>   1
Atom   2C    basis set group =>   1
Atom   3C    basis set group =>   1
Atom   4C    basis set group =>   1
Atom   5C    basis set group =>   1
Atom   6C    basis set group =>   1
Atom   7C    basis set group =>   1
Atom   8C    basis set group =>   1
Atom   9C    basis set group =>   1
Atom  10C    basis set group =>   1
Atom  11C    basis set group =>   1
Atom  12C    basis set group =>   1
Atom  13C    basis set group =>   1
Atom  14C    basis set group =>   1
Atom  15C    basis set group =>   1
Atom  16C    basis set group =>   1
Atom  17C    basis set group =>   1
Atom  18C    basis set group =>   1
Atom  19C    basis set group =>   1
Atom  20C    basis set group =>   1
Atom  21C    basis set group =>   1
Atom  22C    basis set group =>   1
Atom  23C    basis set group =>   1
Atom  24C    basis set group =>   1
Atom  25C    basis set group =>   1
Atom  26C    basis set group =>   1
Atom  27N    basis set group =>   2
Atom  28H    basis set group =>   3
Atom  29H    basis set group =>   3
Atom  30H    basis set group =>   3
Atom  31H    basis set group =>   3
Atom  32H    basis set group =>   3
Atom  33H    basis set group =>   3
Atom  34H    basis set group =>   3
Atom  35H    basis set group =>   3
Atom  36H    basis set group =>   3
Atom  37H    basis set group =>   3
Atom  38H    basis set group =>   3
Atom  39H    basis set group =>   3
Atom  40H    basis set group =>   3
Atom  41H    basis set group =>   3
Atom  42H    basis set group =>   3
Atom  43H    basis set group =>   3
Atom  44H    basis set group =>   3
Atom  45H    basis set group =>   3
Atom  46H    basis set group =>   3
Atom  47H    basis set group =>   3
Atom  48H    basis set group =>   3
Atom  49H    basis set group =>   3
Atom  50H    basis set group =>   3
Atom  51H    basis set group =>   3
Atom  52H    basis set group =>   3
Atom  53H    basis set group =>   3
Atom  54H    basis set group =>   3
Atom  55H    basis set group =>   3
Atom  56H    basis set group =>   3
Atom  57H    basis set group =>   3
Atom  58H    basis set group =>   3
Atom  59H    basis set group =>   3
Atom  60H    basis set group =>   3
Atom  61H    basis set group =>   3
Atom  62H    basis set group =>   3
Atom  63H    basis set group =>   3
---------------------------------
AUXILIARY/J BASIS SET INFORMATION
---------------------------------
There are 3 groups of distinct atoms

 Group   1 Type C   : 17s13p12d2f contracted to 17s13p12d2f pattern {11111111111111111/1111111111111/111111111111/11}
 Group   2 Type N   : 17s13p12d2f contracted to 17s13p12d2f pattern {11111111111111111/1111111111111/111111111111/11}
 Group   3 Type H   : 15s6p1d contracted to 15s6p1d pattern {111111111111111/111111/1}

Atom   0C    basis set group =>   1
Atom   1C    basis set group =>   1
Atom   2C    basis set group =>   1
Atom   3C    basis set group =>   1
Atom   4C    basis set group =>   1
Atom   5C    basis set group =>   1
Atom   6C    basis set group =>   1
Atom   7C    basis set group =>   1
Atom   8C    basis set group =>   1
Atom   9C    basis set group =>   1
Atom  10C    basis set group =>   1
Atom  11C    basis set group =>   1
Atom  12C    basis set group =>   1
Atom  13C    basis set group =>   1
Atom  14C    basis set group =>   1
Atom  15C    basis set group =>   1
Atom  16C    basis set group =>   1
Atom  17C    basis set group =>   1
Atom  18C    basis set group =>   1
Atom  19C    basis set group =>   1
Atom  20C    basis set group =>   1
Atom  21C    basis set group =>   1
Atom  22C    basis set group =>   1
Atom  23C    basis set group =>   1
Atom  24C    basis set group =>   1
Atom  25C    basis set group =>   1
Atom  26C    basis set group =>   1
Atom  27N    basis set group =>   2
Atom  28H    basis set group =>   3
Atom  29H    basis set group =>   3
Atom  30H    basis set group =>   3
Atom  31H    basis set group =>   3
Atom  32H    basis set group =>   3
Atom  33H    basis set group =>   3
Atom  34H    basis set group =>   3
Atom  35H    basis set group =>   3
Atom  36H    basis set group =>   3
Atom  37H    basis set group =>   3
Atom  38H    basis set group =>   3
Atom  39H    basis set group =>   3
Atom  40H    basis set group =>   3
Atom  41H    basis set group =>   3
Atom  42H    basis set group =>   3
Atom  43H    basis set group =>   3
Atom  44H    basis set group =>   3
Atom  45H    basis set group =>   3
Atom  46H    basis set group =>   3
Atom  47H    basis set group =>   3
Atom  48H    basis set group =>   3
Atom  49H    basis set group =>   3
Atom  50H    basis set group =>   3
Atom  51H    basis set group =>   3
Atom  52H    basis set group =>   3
Atom  53H    basis set group =>   3
Atom  54H    basis set group =>   3
Atom  55H    basis set group =>   3
Atom  56H    basis set group =>   3
Atom  57H    basis set group =>   3
Atom  58H    basis set group =>   3
Atom  59H    basis set group =>   3
Atom  60H    basis set group =>   3
Atom  61H    basis set group =>   3
Atom  62H    basis set group =>   3
Atom  63H    basis set group =>   3
---------------------------------
AUXILIARY/C BASIS SET INFORMATION
---------------------------------
There are 3 groups of distinct atoms

 Group   1 Type C   : 17s13p12d2f contracted to 17s13p12d2f pattern {11111111111111111/1111111111111/111111111111/11}
 Group   2 Type N   : 17s13p12d2f contracted to 17s13p12d2f pattern {11111111111111111/1111111111111/111111111111/11}
 Group   3 Type H   : 15s6p1d contracted to 15s6p1d pattern {111111111111111/111111/1}

Atom   0C    basis set group =>   1
Atom   1C    basis set group =>   1
Atom   2C    basis set group =>   1
Atom   3C    basis set group =>   1
Atom   4C    basis set group =>   1
Atom   5C    basis set group =>   1
Atom   6C    basis set group =>   1
Atom   7C    basis set group =>   1
Atom   8C    basis set group =>   1
Atom   9C    basis set group =>   1
Atom  10C    basis set group =>   1
Atom  11C    basis set group =>   1
Atom  12C    basis set group =>   1
Atom  13C    basis set group =>   1
Atom  14C    basis set group =>   1
Atom  15C    basis set group =>   1
Atom  16C    basis set group =>   1
Atom  17C    basis set group =>   1
Atom  18C    basis set group =>   1
Atom  19C    basis set group =>   1
Atom  20C    basis set group =>   1
Atom  21C    basis set group =>   1
Atom  22C    basis set group =>   1
Atom  23C    basis set group =>   1
Atom  24C    basis set group =>   1
Atom  25C    basis set group =>   1
Atom  26C    basis set group =>   1
Atom  27N    basis set group =>   2
Atom  28H    basis set group =>   3
Atom  29H    basis set group =>   3
Atom  30H    basis set group =>   3
Atom  31H    basis set group =>   3
Atom  32H    basis set group =>   3
Atom  33H    basis set group =>   3
Atom  34H    basis set group =>   3
Atom  35H    basis set group =>   3
Atom  36H    basis set group =>   3
Atom  37H    basis set group =>   3
Atom  38H    basis set group =>   3
Atom  39H    basis set group =>   3
Atom  40H    basis set group =>   3
Atom  41H    basis set group =>   3
Atom  42H    basis set group =>   3
Atom  43H    basis set group =>   3
Atom  44H    basis set group =>   3
Atom  45H    basis set group =>   3
Atom  46H    basis set group =>   3
Atom  47H    basis set group =>   3
Atom  48H    basis set group =>   3
Atom  49H    basis set group =>   3
Atom  50H    basis set group =>   3
Atom  51H    basis set group =>   3
Atom  52H    basis set group =>   3
Atom  53H    basis set group =>   3
Atom  54H    basis set group =>   3
Atom  55H    basis set group =>   3
Atom  56H    basis set group =>   3
Atom  57H    basis set group =>   3
Atom  58H    basis set group =>   3
Atom  59H    basis set group =>   3
Atom  60H    basis set group =>   3
Atom  61H    basis set group =>   3
Atom  62H    basis set group =>   3
Atom  63H    basis set group =>   3
----------------------------------
AUXILIARY/JK BASIS SET INFORMATION
----------------------------------
There are 3 groups of distinct atoms

 Group   1 Type C   : 17s13p12d2f contracted to 17s13p12d2f pattern {11111111111111111/1111111111111/111111111111/11}
 Group   2 Type N   : 17s13p12d2f contracted to 17s13p12d2f pattern {11111111111111111/1111111111111/111111111111/11}
 Group   3 Type H   : 15s6p1d contracted to 15s6p1d pattern {111111111111111/111111/1}

Atom   0C    basis set group =>   1
Atom   1C    basis set group =>   1
Atom   2C    basis set group =>   1
Atom   3C    basis set group =>   1
Atom   4C    basis set group =>   1
Atom   5C    basis set group =>   1
Atom   6C    basis set group =>   1
Atom   7C    basis set group =>   1
Atom   8C    basis set group =>   1
Atom   9C    basis set group =>   1
Atom  10C    basis set group =>   1
Atom  11C    basis set group =>   1
Atom  12C    basis set group =>   1
Atom  13C    basis set group =>   1
Atom  14C    basis set group =>   1
Atom  15C    basis set group =>   1
Atom  16C    basis set group =>   1
Atom  17C    basis set group =>   1
Atom  18C    basis set group =>   1
Atom  19C    basis set group =>   1
Atom  20C    basis set group =>   1
Atom  21C    basis set group =>   1
Atom  22C    basis set group =>   1
Atom  23C    basis set group =>   1
Atom  24C    basis set group =>   1
Atom  25C    basis set group =>   1
Atom  26C    basis set group =>   1
Atom  27N    basis set group =>   2
Atom  28H    basis set group =>   3
Atom  29H    basis set group =>   3
Atom  30H    basis set group =>   3
Atom  31H    basis set group =>   3
Atom  32H    basis set group =>   3
Atom  33H    basis set group =>   3
Atom  34H    basis set group =>   3
Atom  35H    basis set group =>   3
Atom  36H    basis set group =>   3
Atom  37H    basis set group =>   3
Atom  38H    basis set group =>   3
Atom  39H    basis set group =>   3
Atom  40H    basis set group =>   3
Atom  41H    basis set group =>   3
Atom  42H    basis set group =>   3
Atom  43H    basis set group =>   3
Atom  44H    basis set group =>   3
Atom  45H    basis set group =>   3
Atom  46H    basis set group =>   3
Atom  47H    basis set group =>   3
Atom  48H    basis set group =>   3
Atom  49H    basis set group =>   3
Atom  50H    basis set group =>   3
Atom  51H    basis set group =>   3
Atom  52H    basis set group =>   3
Atom  53H    basis set group =>   3
Atom  54H    basis set group =>   3
Atom  55H    basis set group =>   3
Atom  56H    basis set group =>   3
Atom  57H    basis set group =>   3
Atom  58H    basis set group =>   3
Atom  59H    basis set group =>   3
Atom  60H    basis set group =>   3
Atom  61H    basis set group =>   3
Atom  62H    basis set group =>   3
Atom  63H    basis set group =>   3


           ************************************************************
           *        Program running with 72 parallel MPI-processes    *
           *              working on a shared directory               *
           ************************************************************
------------------------------------------------------------------------------
                           ORCA GTO INTEGRAL CALCULATION
                           -- RI-GTO INTEGRALS CHOSEN --
------------------------------------------------------------------------------

                         BASIS SET STATISTICS AND STARTUP INFO

Gaussian basis set:
 # of primitive gaussian shells          ...  700
 # of primitive gaussian functions       ... 1164
 # of contracted shells                  ...  432
 # of contracted basis functions         ...  728
 Highest angular momentum                ...    2
 Maximum contraction depth               ...    5
Auxiliary gaussian basis set:
 # of primitive gaussian shells          ... 2024
 # of primitive gaussian functions       ... 5008
 # of contracted shells                  ... 2024
 # of contracted aux-basis functions     ... 5008
 Highest angular momentum                ...    3
 Maximum contraction depth               ...    1
Ratio of auxiliary to basis functions    ...  6.88
Integral package used                  ... LIBINT
 One Electron integrals                  ... done
 Ordering auxiliary basis shells         ... done
 Integral threshhold             Thresh  ...  1.000e-10
 Primitive cut-off               TCut    ...  1.000e-11
 Pre-screening matrix                    ... done
 Shell pair data                         ... 
 Ordering of the shell pairs             ... done (   0.014 sec) 66489 of 93528 pairs
 Determination of significant pairs      ... done (   0.000 sec)
 Creation of shell pair data             ... done (   0.009 sec)
 Storage of shell pair data              ... done (   0.020 sec)
 Shell pair data done in (   0.044 sec)
 Computing two index integrals           ... done
 Cholesky decomposition of the V-matrix  ... done


Timings:
 Total evaluation time                   ...   4.643 sec (  0.077 min)
 One electron matrix time                ...   0.789 sec (  0.013 min) = 17.0%
 Schwartz matrix evaluation time         ...   0.496 sec (  0.008 min) = 10.7%
 Two index repulsion integral time       ...   0.944 sec (  0.016 min) = 20.3%
 Cholesky decomposition of V             ...   2.344 sec (  0.039 min) = 50.5%
 Three index repulsion integral time     ...   0.000 sec (  0.000 min) =  0.0%



           ************************************************************
           *        Program running with 72 parallel MPI-processes    *
           *              working on a shared directory               *
           ************************************************************
-------------------------------------------------------------------------------
                                 ORCA SCF
-------------------------------------------------------------------------------

------------
SCF SETTINGS
------------
Hamiltonian:
 Density Functional     Method          .... DFT(GTOs)
 Exchange Functional    Exchange        .... PBE
   PBE kappa parameter   XKappa         ....  0.804000
   PBE mue parameter    XMuePBE         ....  0.219520
 Correlation Functional Correlation     .... PBE
   PBE beta parameter  CBetaPBE         ....  0.066725
 LDA part of GGA corr.  LDAOpt          .... PW91-LDA
 Gradients option       PostSCFGGA      .... off
   Density functional embedding theory  .... OFF
   NL short-range parameter             ....  6.400000
 RI-approximation to the Coulomb term is turned on
   Number of auxiliary basis functions  .... 5008
   RIJ-COSX (HFX calculated with COS-X)).... on


General Settings:
 Integral files         IntName         .... zfs
 Hartree-Fock type      HFTyp           .... UHF
 Total Charge           Charge          ....   -1
 Multiplicity           Mult            ....    3
 Number of Electrons    NEL             ....  206
 Basis Dimension        Dim             ....  728
 Nuclear Repulsion      ENuc            ....   3308.0184380510 Eh

Convergence Acceleration:
 DIIS                   CNVDIIS         .... on
   Start iteration      DIISMaxIt       ....    12
   Startup error        DIISStart       ....  0.200000
   # of expansion vecs  DIISMaxEq       ....     5
   Bias factor          DIISBfac        ....   1.050
   Max. coefficient     DIISMaxC        ....  10.000
 Newton-Raphson         CNVNR           .... off
 SOSCF                  CNVSOSCF        .... off
 Level Shifting         CNVShift        .... on
   Level shift para.    LevelShift      ....    0.2500
   Turn off err/grad.   ShiftErr        ....    0.0010
 Zerner damping         CNVZerner       .... off
 Static damping         CNVDamp         .... on
   Fraction old density DampFac         ....    0.7000
   Max. Damping (<1)    DampMax         ....    0.9800
   Min. Damping (>=0)   DampMin         ....    0.0000
   Turn off err/grad.   DampErr         ....    0.1000
 Fernandez-Rico         CNVRico         .... off

SCF Procedure:
 Maximum # iterations   MaxIter         ....   125
 SCF integral mode      SCFMode         .... Direct
   Integral package                     .... LIBINT
 Reset frequency        DirectResetFreq ....    20
 Integral Threshold     Thresh          ....  1.000e-10 Eh
 Primitive CutOff       TCut            ....  1.000e-11 Eh

Convergence Tolerance:
 Convergence Check Mode ConvCheckMode   .... Total+1el-Energy
 Convergence forced     ConvForced      .... 0
 Energy Change          TolE            ....  1.000e-06 Eh
 1-El. energy change                    ....  1.000e-03 Eh
 DIIS Error             TolErr          ....  1.000e-06


Diagonalization of the overlap matrix:
Smallest eigenvalue                        ... 1.744e-04
Time for diagonalization                   ...    0.148 sec
Threshold for overlap eigenvalues          ... 1.000e-08
Number of eigenvalues below threshold      ... 0
Time for construction of square roots      ...    0.221 sec
Total time needed                          ...    0.372 sec

-------------------
DFT GRID GENERATION
-------------------

General Integration Accuracy     IntAcc      ...  4.340
Radial Grid Type                 RadialGrid  ... Gauss-Chebyshev
Angular Grid (max. acc.)         AngularGrid ... Lebedev-110
Angular grid pruning method      GridPruning ... 3 (G Style)
Weight generation scheme         WeightScheme... Becke
Basis function cutoff            BFCut       ...    1.0000e-10
Integration weight cutoff        WCut        ...    1.0000e-14
Grids for H and He will be reduced by one unit

# of grid points (after initial pruning)     ...  74998 (   0.1 sec)
# of grid points (after weights+screening)   ...  62511 (   0.1 sec)
nearest neighbour list constructed           ...    0.0 sec
Grid point re-assignment to atoms done       ...    0.0 sec
Grid point division into batches done        ...    0.0 sec
Reduced shell lists constructed in    0.1 sec

Total number of grid points                  ...    62511
Total number of batches                      ...     1009
Average number of points per batch           ...       61
Average number of grid points per atom       ...      977
Average number of shells per batch           ...   227.94 (52.76%)
Average number of basis functions per batch  ...   457.19 (62.80%)
Average number of large shells per batch     ...   169.12 (74.20%)
Average number of large basis fcns per batch ...   337.12 (73.74%)
Maximum spatial batch extension              ...   2.74,  2.26,  2.55 au
Average spatial batch extension              ...   0.03,  0.03,  0.03 au

Time for grid setup =    0.425 sec

------------------------------
INITIAL GUESS: MODEL POTENTIAL
------------------------------
Loading Hartree-Fock densities                     ... done
Calculating cut-offs                               ... done
Setting up the integral package                    ... done
Initializing the effective Hamiltonian             ... done
Starting the Coulomb interaction                   ... done (   0.1 sec)
Reading the grid                                   ... done
Mapping shells                                     ... done
Starting the XC term evaluation                    ... done (   0.1 sec)
  promolecular density results
     # of electrons  =    204.971971085
     EX              =   -156.126001416
     EC              =     -7.166819178
     EX+EC           =   -163.292820594
Transforming the Hamiltonian                       ... done (   0.1 sec)
Diagonalizing the Hamiltonian                      ... done (   0.1 sec)
Back transforming the eigenvectors                 ... done (   0.1 sec)
Now organizing SCF variables                       ... done
                      ------------------
                      INITIAL GUESS DONE (   1.2 sec)
                      ------------------
--------------------
COSX GRID GENERATION
--------------------

General Integration Accuracy     IntAcc      ...  3.340
Radial Grid Type                 RadialGrid  ... Gauss-Chebyshev
Angular Grid (max. acc.)         AngularGrid ... Lebedev-50
Angular grid pruning method      GridPruning ... 3 (G Style)
Weight generation scheme         WeightScheme... Becke
Basis function cutoff            BFCut       ...    1.0000e-10
Integration weight cutoff        WCut        ...    1.0000e-14
Grids for H and He will be reduced by one unit

# of grid points (after initial pruning)     ...  27746 (   0.0 sec)
# of grid points (after weights+screening)   ...  23401 (   0.0 sec)
nearest neighbour list constructed           ...    0.0 sec
Grid point re-assignment to atoms done       ...    0.0 sec
Grid point division into batches done        ...    0.0 sec
Reduced shell lists constructed in    0.0 sec

Total number of grid points                  ...    23401
Total number of batches                      ...      395
Average number of points per batch           ...       59
Average number of grid points per atom       ...      366
Average number of shells per batch           ...   221.57 (51.29%)
Average number of basis functions per batch  ...   444.71 (61.09%)
Average number of large shells per batch     ...   164.43 (74.21%)
Average number of large basis fcns per batch ...   329.29 (74.04%)
Maximum spatial batch extension              ...   3.04,  3.31,  2.80 au
Average spatial batch extension              ...   0.04,  0.04,  0.03 au

Overlap Fitting                  UseSFitting ... on
Constructing numerical overlap ... done (      0.0 sec)
Inverting numerical overlap    ... done (      0.0 sec)
Obtaining analytic overlap     ... done (      0.1 sec)
Final contraction and storage  ... done (      0.1 sec)


General Integration Accuracy     IntAcc      ...  3.670
Radial Grid Type                 RadialGrid  ... Gauss-Chebyshev
Angular Grid (max. acc.)         AngularGrid ... Lebedev-50
Angular grid pruning method      GridPruning ... 3 (G Style)
Weight generation scheme         WeightScheme... Becke
Basis function cutoff            BFCut       ...    1.0000e-10
Integration weight cutoff        WCut        ...    1.0000e-14
Grids for H and He will be reduced by one unit

# of grid points (after initial pruning)     ...  35464 (   0.0 sec)
# of grid points (after weights+screening)   ...  29830 (   0.0 sec)
nearest neighbour list constructed           ...    0.0 sec
Grid point re-assignment to atoms done       ...    0.0 sec
Grid point division into batches done        ...    0.0 sec
Reduced shell lists constructed in    0.0 sec

Total number of grid points                  ...    29830
Total number of batches                      ...      500
Average number of points per batch           ...       59
Average number of grid points per atom       ...      466
Average number of shells per batch           ...   223.75 (51.79%)
Average number of basis functions per batch  ...   446.75 (61.37%)
Average number of large shells per batch     ...   168.00 (75.08%)
Average number of large basis fcns per batch ...   337.50 (75.55%)
Maximum spatial batch extension              ...   3.07,  2.92,  2.71 au
Average spatial batch extension              ...   0.03,  0.03,  0.03 au

Overlap Fitting                  UseSFitting ... on
Constructing numerical overlap ... done (      0.0 sec)
Inverting numerical overlap    ... done (      0.0 sec)
Obtaining analytic overlap     ... done (      0.0 sec)
Final contraction and storage  ... done (      0.1 sec)


General Integration Accuracy     IntAcc      ...  4.010
Radial Grid Type                 RadialGrid  ... Gauss-Chebyshev
Angular Grid (max. acc.)         AngularGrid ... Lebedev-110
Angular grid pruning method      GridPruning ... 3 (G Style)
Weight generation scheme         WeightScheme... Becke
Basis function cutoff            BFCut       ...    1.0000e-10
Integration weight cutoff        WCut        ...    1.0000e-14
Grids for H and He will be reduced by one unit

# of grid points (after initial pruning)     ...  65152 (   0.0 sec)
# of grid points (after weights+screening)   ...  54597 (   0.1 sec)
nearest neighbour list constructed           ...    0.0 sec
Grid point re-assignment to atoms done       ...    0.0 sec
Grid point division into batches done        ...    0.1 sec
Reduced shell lists constructed in    0.1 sec

Total number of grid points                  ...    54597
Total number of batches                      ...      883
Average number of points per batch           ...       61
Average number of grid points per atom       ...      853
Average number of shells per batch           ...   225.86 (52.28%)
Average number of basis functions per batch  ...   453.43 (62.28%)
Average number of large shells per batch     ...   168.79 (74.73%)
Average number of large basis fcns per batch ...   335.07 (73.90%)
Maximum spatial batch extension              ...   2.29,  2.31,  2.34 au
Average spatial batch extension              ...   0.03,  0.03,  0.03 au

Overlap Fitting                  UseSFitting ... on
Constructing numerical overlap ... done (      0.1 sec)
Inverting numerical overlap    ... done (      0.0 sec)
Obtaining analytic overlap     ... done (      0.0 sec)
Final contraction and storage  ... done (      0.1 sec)

Time for X-Grid setup             =    1.226 sec
--------------
SCF ITERATIONS
--------------
ITER       Energy         Delta-E        Max-DP      RMS-DP      [F,P]     Damp
               ***  Starting incremental Fock matrix formation  ***
  0  -1102.3551689693   0.000000000000 7.89281626  0.02043194  0.1512405 0.7000
  1  -1102.7802966375  -0.425127668267 5.04871102  0.01275939  0.0656692 0.7000
                               ***Turning on DIIS***
  2  -1102.8703624651  -0.090065827615 0.85480453  0.00362388  0.0352259 0.0000
  3  -1103.1237307300  -0.253368264847 4.58009412  0.01133880  0.0323379 0.0000
  4  -1103.1569292599  -0.033198529861 1.48010439  0.00365181  0.0198660 0.0000
  5  -1103.1662833400  -0.009354080098 0.66536505  0.00160793  0.0057993 0.0000
  6  -1103.1676235719  -0.001340231919 0.45219272  0.00108362  0.0014007 0.0000
  7  -1103.1678305168  -0.000206944932 0.27329446  0.00064198  0.0023205 0.0000
  8  -1103.1679353814  -0.000104864554 0.57463346  0.00132517  0.0005465 0.0000
  9  -1103.1680021920  -0.000066810614 0.10406125  0.00029069  0.0007837 0.0000
 10  -1103.1680087837  -0.000006591744 0.09460194  0.00022754  0.0005385 0.0000
 11  -1103.1680134761  -0.000004692366 0.02885790  0.00006693  0.0003780 0.0000
 12  -1103.1680154462  -0.000001970076 0.00898800  0.00001991  0.0000684 0.0000
 13  -1103.1680153437   0.000000102489 0.00654716  0.00001182  0.0000945 0.0000
                 **** Energy Check signals convergence ****

               *****************************************************
               *                     SUCCESS                       *
               *           SCF CONVERGED AFTER  14 CYCLES          *
               *****************************************************

Setting up the final grid:

General Integration Accuracy     IntAcc      ...  4.670
Radial Grid Type                 RadialGrid  ... Gauss-Chebyshev
Angular Grid (max. acc.)         AngularGrid ... Lebedev-302
Angular grid pruning method      GridPruning ... 3 (G Style)
Weight generation scheme         WeightScheme... Becke
Basis function cutoff            BFCut       ...    1.0000e-10
Integration weight cutoff        WCut        ...    1.0000e-14
Grids for H and He will be reduced by one unit

# of grid points (after initial pruning)     ... 296120 (   0.0 sec)
# of grid points (after weights+screening)   ... 239130 (   0.2 sec)
nearest neighbour list constructed           ...    0.0 sec
Grid point re-assignment to atoms done       ...    0.1 sec
Grid point division into batches done        ...    0.8 sec
Reduced shell lists constructed in    0.9 sec

Total number of grid points                  ...   239130
Total number of batches                      ...     3772
Average number of points per batch           ...       63
Average number of grid points per atom       ...     3736
Average number of shells per batch           ...   226.02 (52.32%)
Average number of basis functions per batch  ...   454.69 (62.46%)
Average number of large shells per batch     ...   167.24 (73.99%)
Average number of large basis fcns per batch ...   330.76 (72.74%)
Maximum spatial batch extension              ...   1.81,  1.50,  1.98 au
Average spatial batch extension              ...   0.02,  0.02,  0.02 au

Final grid set up in    1.3 sec
Final integration                            ... done (   1.0 sec)
Change in XC energy                          ...     0.000151932
Integrated number of electrons               ...   205.999665306
Previous integrated no of electrons          ...   205.998718226

----------------
TOTAL SCF ENERGY
----------------

Total Energy       :        -1103.16786359 Eh          -30018.72369 eV

Components:
Nuclear Repulsion  :         3308.01843805 Eh           90015.75801 eV
Electronic Energy  :        -4411.18630164 Eh         -120034.48170 eV
One Electron Energy:        -8103.21601045 Eh         -220499.71763 eV
Two Electron Energy:         3692.02970881 Eh          100465.23593 eV

Virial components:
Potential Energy   :        -2203.45772226 Eh          -59959.13289 eV
Kinetic Energy     :         1100.28985867 Eh           29940.40920 eV
Virial Ratio       :            2.00261568


DFT components:
N(Alpha)           :      103.999829718546 electrons
N(Beta)            :      101.999835587847 electrons
N(Total)           :      205.999665306393 electrons
E(X)               :     -159.757084643649 Eh       
E(C)               :       -7.076923013122 Eh       
E(XC)              :     -166.834007656770 Eh       
DFET-embed. en.    :        0.000000000000 Eh       

---------------
SCF CONVERGENCE
---------------

  Last Energy change         ...   -1.7302e-07  Tolerance :   1.0000e-06
  Last MAX-Density change    ...    5.2542e-04  Tolerance :   1.0000e-05
  Last RMS-Density change    ...    1.5449e-06  Tolerance :   1.0000e-06
  Last DIIS Error            ...    3.3293e-05  Tolerance :   1.0000e-06

             **** THE GBW FILE WAS UPDATED (zfs.gbw) ****
             **** DENSITY FILE WAS UPDATED (zfs.scfp) ****
             **** ENERGY FILE WAS UPDATED (zfs.en.tmp) ****
----------------------
UHF SPIN CONTAMINATION
----------------------

Warning: in a DFT calculation there is little theoretical justification to 
         calculate <S**2> as in Hartree-Fock theory. We will do it anyways
         but you should keep in mind that the values have only limited relevance

Expectation value of <S**2>     :     2.011107
Ideal value S*(S+1) for S=1.0   :     2.000000
Deviation                       :     0.011107

             **** THE GBW FILE WAS UPDATED (zfs.gbw) ****
             **** DENSITY FILE WAS UPDATED (zfs.scfp) ****
----------------
ORBITAL ENERGIES
----------------
                 SPIN UP ORBITALS
  NO   OCC          E(Eh)            E(eV) 
   0   1.0000     -13.855711      -377.0331 
   1   1.0000      -9.801414      -266.7100 
   2   1.0000      -9.801324      -266.7076 
   3   1.0000      -9.801096      -266.7014 
   4   1.0000      -9.762887      -265.6617 
   5   1.0000      -9.762833      -265.6602 
   6   1.0000      -9.762786      -265.6589 
   7   1.0000      -9.762752      -265.6580 
   8   1.0000      -9.762707      -265.6568 
   9   1.0000      -9.762593      -265.6537 
  10   1.0000      -9.755810      -265.4691 
  11   1.0000      -9.755699      -265.4661 
  12   1.0000      -9.755383      -265.4575 
  13   1.0000      -9.749104      -265.2866 
  14   1.0000      -9.749098      -265.2864 
  15   1.0000      -9.748943      -265.2822 
  16   1.0000      -9.748572      -265.2721 
  17   1.0000      -9.748245      -265.2632 
  18   1.0000      -9.748117      -265.2598 
  19   1.0000      -9.739718      -265.0312 
  20   1.0000      -9.739654      -265.0295 
  21   1.0000      -9.739590      -265.0277 
  22   1.0000      -9.735865      -264.9264 
  23   1.0000      -9.735406      -264.9139 
  24   1.0000      -9.735265      -264.9100 
  25   1.0000      -9.734722      -264.8953 
  26   1.0000      -9.734544      -264.8904 
  27   1.0000      -9.734148      -264.8796 
  28   1.0000      -0.729692       -19.8559 
  29   1.0000      -0.667498       -18.1635 
  30   1.0000      -0.652342       -17.7511 
  31   1.0000      -0.652323       -17.7506 
  32   1.0000      -0.609367       -16.5817 
  33   1.0000      -0.598257       -16.2794 
  34   1.0000      -0.597978       -16.2718 
  35   1.0000      -0.582497       -15.8505 
  36   1.0000      -0.582393       -15.8477 
  37   1.0000      -0.545787       -14.8516 
  38   1.0000      -0.521609       -14.1937 
  39   1.0000      -0.521562       -14.1924 
  40   1.0000      -0.518987       -14.1224 
  41   1.0000      -0.515985       -14.0407 
  42   1.0000      -0.515682       -14.0324 
  43   1.0000      -0.501961       -13.6591 
  44   1.0000      -0.444699       -12.1009 
  45   1.0000      -0.444605       -12.0983 
  46   1.0000      -0.423878       -11.5343 
  47   1.0000      -0.405279       -11.0282 
  48   1.0000      -0.405265       -11.0278 
  49   1.0000      -0.400307       -10.8929 
  50   1.0000      -0.397561       -10.8182 
  51   1.0000      -0.384084       -10.4515 
  52   1.0000      -0.383959       -10.4481 
  53   1.0000      -0.358455        -9.7541 
  54   1.0000      -0.358010        -9.7419 
  55   1.0000      -0.357868        -9.7381 
  56   1.0000      -0.346482        -9.4282 
  57   1.0000      -0.312902        -8.5145 
  58   1.0000      -0.308983        -8.4079 
  59   1.0000      -0.308904        -8.4057 
  60   1.0000      -0.301297        -8.1987 
  61   1.0000      -0.301245        -8.1973 
  62   1.0000      -0.282094        -7.6762 
  63   1.0000      -0.279290        -7.5999 
  64   1.0000      -0.279215        -7.5978 
  65   1.0000      -0.275681        -7.5017 
  66   1.0000      -0.275637        -7.5005 
  67   1.0000      -0.242681        -6.6037 
  68   1.0000      -0.242636        -6.6025 
  69   1.0000      -0.238258        -6.4833 
  70   1.0000      -0.231097        -6.2885 
  71   1.0000      -0.228462        -6.2168 
  72   1.0000      -0.226334        -6.1589 
  73   1.0000      -0.226248        -6.1565 
  74   1.0000      -0.212523        -5.7830 
  75   1.0000      -0.212398        -5.7796 
  76   1.0000      -0.210154        -5.7186 
  77   1.0000      -0.197041        -5.3618 
  78   1.0000      -0.190635        -5.1874 
  79   1.0000      -0.190607        -5.1867 
  80   1.0000      -0.179311        -4.8793 
  81   1.0000      -0.179300        -4.8790 
  82   1.0000      -0.171450        -4.6654 
  83   1.0000      -0.166794        -4.5387 
  84   1.0000      -0.166765        -4.5379 
  85   1.0000      -0.161142        -4.3849 
  86   1.0000      -0.158685        -4.3180 
  87   1.0000      -0.156265        -4.2522 
  88   1.0000      -0.156174        -4.2497 
  89   1.0000      -0.146987        -3.9997 
  90   1.0000      -0.146873        -3.9966 
  91   1.0000      -0.135120        -3.6768 
  92   1.0000      -0.119941        -3.2638 
  93   1.0000      -0.119865        -3.2617 
  94   1.0000      -0.095589        -2.6011 
  95   1.0000      -0.095551        -2.6001 
  96   1.0000      -0.092628        -2.5205 
  97   1.0000      -0.077074        -2.0973 
  98   1.0000      -0.059066        -1.6073 
  99   1.0000      -0.056831        -1.5465 
 100   1.0000      -0.056574        -1.5395 
 101   1.0000       0.002026         0.0551 
 102   1.0000       0.047261         1.2860 
 103   1.0000       0.047614         1.2956 
 104   0.0000       0.096906         2.6369 
 105   0.0000       0.113793         3.0965 
 106   0.0000       0.116290         3.1644 
 107   0.0000       0.117249         3.1905 
 108   0.0000       0.124558         3.3894 
 109   0.0000       0.124874         3.3980 
 110   0.0000       0.126583         3.4445 
 111   0.0000       0.130633         3.5547 
 112   0.0000       0.131243         3.5713 
 113   0.0000       0.141423         3.8483 
 114   0.0000       0.141962         3.8630 
 115   0.0000       0.143931         3.9166 
 116   0.0000       0.150390         4.0923 
 117   0.0000       0.151089         4.1113 
 118   0.0000       0.153247         4.1701 
 119   0.0000       0.155422         4.2293 
 120   0.0000       0.179063         4.8726 
 121   0.0000       0.180211         4.9038 
 122   0.0000       0.184275         5.0144 
 123   0.0000       0.184581         5.0227 
 124   0.0000       0.184939         5.0325 
 125   0.0000       0.185451         5.0464 
 126   0.0000       0.193334         5.2609 
 127   0.0000       0.194144         5.2829 
 128   0.0000       0.195946         5.3320 
 129   0.0000       0.228124         6.2076 
 130   0.0000       0.228481         6.2173 
 131   0.0000       0.230055         6.2601 
 132   0.0000       0.239725         6.5233 
 133   0.0000       0.246493         6.7074 
 134   0.0000       0.249913         6.8005 
 135   0.0000       0.250038         6.8039 
 136   0.0000       0.251929         6.8553 
 137   0.0000       0.252418         6.8686 
 138   0.0000       0.275240         7.4897 
 139   0.0000       0.277068         7.5394 
 140   0.0000       0.277414         7.5488 
 141   0.0000       0.283525         7.7151 
 142   0.0000       0.284151         7.7321 
 143   0.0000       0.292218         7.9517 
 144   0.0000       0.292735         7.9657 
 145   0.0000       0.292922         7.9708 
 146   0.0000       0.296566         8.0700 
 147   0.0000       0.297483         8.0949 
 148   0.0000       0.297591         8.0979 
 149   0.0000       0.299446         8.1483 
 150   0.0000       0.308334         8.3902 
 151   0.0000       0.308570         8.3966 
 152   0.0000       0.311186         8.4678 
 153   0.0000       0.311782         8.4840 
 154   0.0000       0.313997         8.5443 
 155   0.0000       0.327484         8.9113 
 156   0.0000       0.331870         9.0307 
 157   0.0000       0.332236         9.0406 
 158   0.0000       0.340899         9.2763 
 159   0.0000       0.343710         9.3528 
 160   0.0000       0.344054         9.3622 
 161   0.0000       0.354995         9.6599 
 162   0.0000       0.355500         9.6737 
 163   0.0000       0.356882         9.7113 
 164   0.0000       0.366271         9.9667 
 165   0.0000       0.372283        10.1303 
 166   0.0000       0.373341        10.1591 
 167   0.0000       0.373937        10.1754 
 168   0.0000       0.381961        10.3937 
 169   0.0000       0.382187        10.3998 
 170   0.0000       0.382668        10.4129 
 171   0.0000       0.388830        10.5806 
 172   0.0000       0.389649        10.6029 
 173   0.0000       0.390003        10.6125 
 174   0.0000       0.392806        10.6888 
 175   0.0000       0.393414        10.7053 
 176   0.0000       0.394512        10.7352 
 177   0.0000       0.397280        10.8105 
 178   0.0000       0.398190        10.8353 
 179   0.0000       0.410720        11.1763 
 180   0.0000       0.411681        11.2024 
 181   0.0000       0.413591        11.2544 
 182   0.0000       0.427336        11.6284 
 183   0.0000       0.428034        11.6474 
 184   0.0000       0.428532        11.6609 
 185   0.0000       0.428892        11.6707 
 186   0.0000       0.429232        11.6800 
 187   0.0000       0.431716        11.7476 
 188   0.0000       0.432592        11.7714 
 189   0.0000       0.433902        11.8071 
 190   0.0000       0.436762        11.8849 
 191   0.0000       0.437963        11.9176 
 192   0.0000       0.438454        11.9309 
 193   0.0000       0.451088        12.2747 
 194   0.0000       0.460527        12.5316 
 195   0.0000       0.461249        12.5512 
 196   0.0000       0.467345        12.7171 
 197   0.0000       0.470898        12.8138 
 198   0.0000       0.471683        12.8351 
 199   0.0000       0.472690        12.8625 
 200   0.0000       0.482421        13.1273 
 201   0.0000       0.483223        13.1492 
 202   0.0000       0.498584        13.5672 
 203   0.0000       0.507961        13.8223 
 204   0.0000       0.509357        13.8603 
 205   0.0000       0.510976        13.9044 
 206   0.0000       0.515653        14.0316 
 207   0.0000       0.516690        14.0598 
 208   0.0000       0.527323        14.3492 
 209   0.0000       0.534856        14.5542 
 210   0.0000       0.535934        14.5835 
 211   0.0000       0.537149        14.6166 
 212   0.0000       0.541686        14.7400 
 213   0.0000       0.546855        14.8807 
 214   0.0000       0.547967        14.9109 
 215   0.0000       0.551246        15.0002 
 216   0.0000       0.558224        15.1900 
 217   0.0000       0.558820        15.2063 
 218   0.0000       0.559436        15.2230 
 219   0.0000       0.575570        15.6621 
 220   0.0000       0.579335        15.7645 
 221   0.0000       0.580660        15.8006 
 222   0.0000       0.590232        16.0610 
 223   0.0000       0.591266        16.0892 
 224   0.0000       0.600072        16.3288 
 225   0.0000       0.603049        16.4098 
 226   0.0000       0.604381        16.4460 
 227   0.0000       0.607982        16.5440 
 228   0.0000       0.616258        16.7692 
 229   0.0000       0.617949        16.8153 
 230   0.0000       0.619270        16.8512 
 231   0.0000       0.620391        16.8817 
 232   0.0000       0.621386        16.9088 
 233   0.0000       0.623135        16.9564 
 234   0.0000       0.624284        16.9876 
 235   0.0000       0.625211        17.0129 
 236   0.0000       0.634088        17.2544 
 237   0.0000       0.644496        17.5376 
 238   0.0000       0.645028        17.5521 
 239   0.0000       0.646771        17.5995 
 240   0.0000       0.657824        17.9003 
 241   0.0000       0.658188        17.9102 
 242   0.0000       0.664320        18.0771 
 243   0.0000       0.679106        18.4794 
 244   0.0000       0.697460        18.9789 
 245   0.0000       0.698820        19.0159 
 246   0.0000       0.702591        19.1185 
 247   0.0000       0.703518        19.1437 
 248   0.0000       0.708477        19.2786 
 249   0.0000       0.713852        19.4249 
 250   0.0000       0.714084        19.4312 
 251   0.0000       0.714636        19.4462 
 252   0.0000       0.730112        19.8674 
 253   0.0000       0.735991        20.0273 
 254   0.0000       0.737418        20.0662 
 255   0.0000       0.737826        20.0773 
 256   0.0000       0.744733        20.2652 
 257   0.0000       0.746354        20.3093 
 258   0.0000       0.757937        20.6245 
 259   0.0000       0.758485        20.6394 
 260   0.0000       0.761068        20.7097 
 261   0.0000       0.761345        20.7173 
 262   0.0000       0.762131        20.7386 
 263   0.0000       0.779386        21.2082 
 264   0.0000       0.812109        22.0986 
 265   0.0000       0.828356        22.5407 
 266   0.0000       0.852738        23.2042 
 267   0.0000       0.853010        23.2116 
 268   0.0000       0.856929        23.3182 
 269   0.0000       0.857397        23.3310 
 270   0.0000       0.896061        24.3830 
 271   0.0000       0.898547        24.4507 
 272   0.0000       0.906479        24.6666 
 273   0.0000       0.907756        24.7013 
 274   0.0000       0.916069        24.9275 
 275   0.0000       0.923175        25.1209 
 276   0.0000       0.924528        25.1577 
 277   0.0000       0.942413        25.6444 
 278   0.0000       0.950890        25.8750 
 279   0.0000       0.951825        25.9005 
 280   0.0000       0.956250        26.0209 
 281   0.0000       0.957672        26.0596 
 282   0.0000       0.958794        26.0901 
 283   0.0000       0.961455        26.1625 
 284   0.0000       0.964612        26.2484 
 285   0.0000       0.965762        26.2797 
 286   0.0000       0.984438        26.7879 
 287   0.0000       1.007605        27.4183 
 288   0.0000       1.010679        27.5020 
 289   0.0000       1.011421        27.5222 
 290   0.0000       1.016046        27.6480 
 291   0.0000       1.017374        27.6842 
 292   0.0000       1.018041        27.7023 
 293   0.0000       1.030102        28.0305 
 294   0.0000       1.030339        28.0370 
 295   0.0000       1.039649        28.2903 
 296   0.0000       1.040502        28.3135 
 297   0.0000       1.041546        28.3419 
 298   0.0000       1.046319        28.4718 
 299   0.0000       1.046804        28.4850 
 300   0.0000       1.054607        28.6973 
 301   0.0000       1.060141        28.8479 
 302   0.0000       1.060692        28.8629 
 303   0.0000       1.061284        28.8790 
 304   0.0000       1.066980        29.0340 
 305   0.0000       1.067257        29.0415 
 306   0.0000       1.070620        29.1331 
 307   0.0000       1.088396        29.6168 
 308   0.0000       1.095093        29.7990 
 309   0.0000       1.096547        29.8386 
 310   0.0000       1.125131        30.6164 
 311   0.0000       1.131235        30.7825 
 312   0.0000       1.131463        30.7887 
 313   0.0000       1.132482        30.8164 
 314   0.0000       1.135476        30.8979 
 315   0.0000       1.135827        30.9074 
 316   0.0000       1.140114        31.0241 
 317   0.0000       1.140994        31.0480 
 318   0.0000       1.142170        31.0800 
 319   0.0000       1.146400        31.1951 
 320   0.0000       1.147334        31.2206 
 321   0.0000       1.148613        31.2553 
 322   0.0000       1.148879        31.2626 
 323   0.0000       1.153487        31.3880 
 324   0.0000       1.153935        31.4002 
 325   0.0000       1.154549        31.4169 
 326   0.0000       1.155174        31.4339 
 327   0.0000       1.160604        31.5816 
 328   0.0000       1.161357        31.6021 
 329   0.0000       1.170381        31.8477 
 330   0.0000       1.204211        32.7683 
 331   0.0000       1.204972        32.7890 
 332   0.0000       1.205522        32.8039 
 333   0.0000       1.206238        32.8234 
 334   0.0000       1.208957        32.8974 
 335   0.0000       1.209246        32.9052 
 336   0.0000       1.214455        33.0470 
 337   0.0000       1.214885        33.0587 
 338   0.0000       1.215471        33.0746 
 339   0.0000       1.216438        33.1010 
 340   0.0000       1.233212        33.5574 
 341   0.0000       1.233912        33.5765 
 342   0.0000       1.249665        34.0051 
 343   0.0000       1.270503        34.5721 
 344   0.0000       1.279446        34.8155 
 345   0.0000       1.279848        34.8264 
 346   0.0000       1.282298        34.8931 
 347   0.0000       1.290383        35.1131 
 348   0.0000       1.293757        35.2049 
 349   0.0000       1.295315        35.2473 
 350   0.0000       1.306859        35.5615 
 351   0.0000       1.308558        35.6077 
 352   0.0000       1.313655        35.7464 
 353   0.0000       1.327742        36.1297 
 354   0.0000       1.330390        36.2017 
 355   0.0000       1.331434        36.2302 
 356   0.0000       1.368461        37.2377 
 357   0.0000       1.368673        37.2435 
 358   0.0000       1.381928        37.6042 
 359   0.0000       1.384796        37.6822 
 360   0.0000       1.385416        37.6991 
 361   0.0000       1.402793        38.1720 
 362   0.0000       1.404120        38.2080 
 363   0.0000       1.404950        38.2306 
 364   0.0000       1.411894        38.4196 
 365   0.0000       1.428823        38.8803 
 366   0.0000       1.429547        38.8999 
 367   0.0000       1.438134        39.1336 
 368   0.0000       1.440481        39.1975 
 369   0.0000       1.440973        39.2109 
 370   0.0000       1.454973        39.5918 
 371   0.0000       1.455655        39.6104 
 372   0.0000       1.464176        39.8423 
 373   0.0000       1.485155        40.4131 
 374   0.0000       1.486864        40.4596 
 375   0.0000       1.487564        40.4787 
 376   0.0000       1.496723        40.7279 
 377   0.0000       1.497431        40.7472 
 378   0.0000       1.498243        40.7693 
 379   0.0000       1.505750        40.9735 
 380   0.0000       1.507105        41.0104 
 381   0.0000       1.507891        41.0318 
 382   0.0000       1.511570        41.1319 
 383   0.0000       1.518296        41.3149 
 384   0.0000       1.518912        41.3317 
 385   0.0000       1.530687        41.6521 
 386   0.0000       1.533047        41.7163 
 387   0.0000       1.533206        41.7206 
 388   0.0000       1.539629        41.8954 
 389   0.0000       1.540186        41.9106 
 390   0.0000       1.540829        41.9281 
 391   0.0000       1.553853        42.2825 
 392   0.0000       1.565056        42.5874 
 393   0.0000       1.565646        42.6034 
 394   0.0000       1.566235        42.6194 
 395   0.0000       1.571450        42.7613 
 396   0.0000       1.571937        42.7746 
 397   0.0000       1.583323        43.0844 
 398   0.0000       1.598502        43.4975 
 399   0.0000       1.598918        43.5088 
 400   0.0000       1.611886        43.8616 
 401   0.0000       1.615425        43.9580 
 402   0.0000       1.616398        43.9844 
 403   0.0000       1.621111        44.1127 
 404   0.0000       1.641880        44.6778 
 405   0.0000       1.645381        44.7731 
 406   0.0000       1.650832        44.9214 
 407   0.0000       1.651664        44.9441 
 408   0.0000       1.662528        45.2397 
 409   0.0000       1.662731        45.2452 
 410   0.0000       1.668306        45.3969 
 411   0.0000       1.668791        45.4101 
 412   0.0000       1.686127        45.8818 
 413   0.0000       1.686541        45.8931 
 414   0.0000       1.688007        45.9330 
 415   0.0000       1.688138        45.9366 
 416   0.0000       1.688289        45.9407 
 417   0.0000       1.708012        46.4774 
 418   0.0000       1.731594        47.1191 
 419   0.0000       1.731783        47.1242 
 420   0.0000       1.736008        47.2392 
 421   0.0000       1.744481        47.4698 
 422   0.0000       1.745094        47.4864 
 423   0.0000       1.749909        47.6174 
 424   0.0000       1.752368        47.6844 
 425   0.0000       1.753232        47.7079 
 426   0.0000       1.763287        47.9815 
 427   0.0000       1.763549        47.9886 
 428   0.0000       1.781211        48.4692 
 429   0.0000       1.801088        49.0101 
 430   0.0000       1.801726        49.0275 
 431   0.0000       1.806830        49.1663 
 432   0.0000       1.807096        49.1736 
 433   0.0000       1.812163        49.3115 
 434   0.0000       1.812721        49.3266 
 435   0.0000       1.819346        49.5069 
 436   0.0000       1.819670        49.5157 
 437   0.0000       1.825273        49.6682 
 438   0.0000       1.832381        49.8616 
 439   0.0000       1.832603        49.8677 
 440   0.0000       1.835632        49.9501 
 441   0.0000       1.840470        50.0817 
 442   0.0000       1.841100        50.0989 
 443   0.0000       1.851133        50.3719 
 444   0.0000       1.855703        50.4963 
 445   0.0000       1.856061        50.5060 
 446   0.0000       1.857408        50.5426 
 447   0.0000       1.858257        50.5658 
 448   0.0000       1.858586        50.5747 
 449   0.0000       1.870101        50.8880 
 450   0.0000       1.905707        51.8569 
 451   0.0000       1.905954        51.8636 
 452   0.0000       1.907113        51.8952 
 453   0.0000       1.926048        52.4104 
 454   0.0000       1.930555        52.5331 
 455   0.0000       1.933246        52.6063 
 456   0.0000       1.939619        52.7797 
 457   0.0000       1.939852        52.7861 
 458   0.0000       1.943776        52.8928 
 459   0.0000       1.944331        52.9079 
 460   0.0000       1.950746        53.0825 
 461   0.0000       1.951062        53.0911 
 462   0.0000       1.967111        53.5278 
 463   0.0000       1.969342        53.5885 
 464   0.0000       1.971203        53.6392 
 465   0.0000       1.971378        53.6439 
 466   0.0000       1.993258        54.2393 
 467   0.0000       1.997290        54.3490 
 468   0.0000       1.997501        54.3548 
 469   0.0000       2.007063        54.6150 
 470   0.0000       2.007391        54.6239 
 471   0.0000       2.015258        54.8380 
 472   0.0000       2.017115        54.8885 
 473   0.0000       2.017363        54.8952 
 474   0.0000       2.024101        55.0786 
 475   0.0000       2.032741        55.3137 
 476   0.0000       2.033230        55.3270 
 477   0.0000       2.039799        55.5058 
 478   0.0000       2.039918        55.5090 
 479   0.0000       2.043325        55.6017 
 480   0.0000       2.052683        55.8564 
 481   0.0000       2.053162        55.8694 
 482   0.0000       2.069177        56.3052 
 483   0.0000       2.081879        56.6508 
 484   0.0000       2.084710        56.7278 
 485   0.0000       2.086898        56.7874 
 486   0.0000       2.087219        56.7961 
 487   0.0000       2.105501        57.2936 
 488   0.0000       2.105955        57.3060 
 489   0.0000       2.110483        57.4292 
 490   0.0000       2.118550        57.6487 
 491   0.0000       2.118965        57.6600 
 492   0.0000       2.124691        57.8158 
 493   0.0000       2.126202        57.8569 
 494   0.0000       2.126360        57.8612 
 495   0.0000       2.151166        58.5362 
 496   0.0000       2.162899        58.8555 
 497   0.0000       2.179075        59.2956 
 498   0.0000       2.179564        59.3090 
 499   0.0000       2.193383        59.6850 
 500   0.0000       2.209587        60.1259 
 501   0.0000       2.213463        60.2314 
 502   0.0000       2.213647        60.2364 
 503   0.0000       2.224158        60.5224 
 504   0.0000       2.224903        60.5427 
 505   0.0000       2.225084        60.5476 
 506   0.0000       2.229333        60.6632 
 507   0.0000       2.229775        60.6753 
 508   0.0000       2.250399        61.2365 
 509   0.0000       2.250753        61.2461 
 510   0.0000       2.274421        61.8902 
 511   0.0000       2.275092        61.9084 
 512   0.0000       2.290818        62.3363 
 513   0.0000       2.296185        62.4824 
 514   0.0000       2.307737        62.7967 
 515   0.0000       2.307964        62.8029 
 516   0.0000       2.314191        62.9723 
 517   0.0000       2.326402        63.3046 
 518   0.0000       2.347955        63.8911 
 519   0.0000       2.348116        63.8955 
 520   0.0000       2.358927        64.1897 
 521   0.0000       2.359364        64.2016 
 522   0.0000       2.359835        64.2144 
 523   0.0000       2.395173        65.1760 
 524   0.0000       2.395765        65.1921 
 525   0.0000       2.417776        65.7910 
 526   0.0000       2.423811        65.9553 
 527   0.0000       2.424013        65.9607 
 528   0.0000       2.426432        66.0266 
 529   0.0000       2.435617        66.2765 
 530   0.0000       2.435865        66.2833 
 531   0.0000       2.446303        66.5673 
 532   0.0000       2.456642        66.8486 
 533   0.0000       2.456979        66.8578 
 534   0.0000       2.468120        67.1610 
 535   0.0000       2.468372        67.1678 
 536   0.0000       2.474065        67.3227 
 537   0.0000       2.479452        67.4693 
 538   0.0000       2.511386        68.3383 
 539   0.0000       2.511777        68.3489 
 540   0.0000       2.522390        68.6377 
 541   0.0000       2.550402        69.4000 
 542   0.0000       2.564794        69.7916 
 543   0.0000       2.565194        69.8025 
 544   0.0000       2.584164        70.3187 
 545   0.0000       2.588198        70.4285 
 546   0.0000       2.599970        70.7488 
 547   0.0000       2.600295        70.7576 
 548   0.0000       2.616881        71.2089 
 549   0.0000       2.617133        71.2158 
 550   0.0000       2.632939        71.6459 
 551   0.0000       2.633244        71.6542 
 552   0.0000       2.633350        71.6571 
 553   0.0000       2.671476        72.6945 
 554   0.0000       2.682694        72.9998 
 555   0.0000       2.694592        73.3236 
 556   0.0000       2.695120        73.3379 
 557   0.0000       2.739685        74.5506 
 558   0.0000       2.745263        74.7024 
 559   0.0000       2.747829        74.7722 
[...]
 521( 0) :     2.359365 a.u.    64.202 eV
 522( 0) :     2.359837 a.u.    64.214 eV
 523( 0) :     2.395172 a.u.    65.176 eV
 524( 0) :     2.395768 a.u.    65.192 eV
 525( 0) :     2.417779 a.u.    65.791 eV
 526( 0) :     2.423814 a.u.    65.955 eV
 527( 0) :     2.424015 a.u.    65.961 eV
 528( 0) :     2.426436 a.u.    66.027 eV
 529( 0) :     2.435618 a.u.    66.277 eV
 530( 0) :     2.435866 a.u.    66.283 eV
 531( 0) :     2.446304 a.u.    66.567 eV
 532( 0) :     2.456646 a.u.    66.849 eV
 533( 0) :     2.456982 a.u.    66.858 eV
 534( 0) :     2.468123 a.u.    67.161 eV
 535( 0) :     2.468374 a.u.    67.168 eV
 536( 0) :     2.474069 a.u.    67.323 eV
 537( 0) :     2.479450 a.u.    67.469 eV
 538( 0) :     2.511387 a.u.    68.338 eV
 539( 0) :     2.511779 a.u.    68.349 eV
 540( 0) :     2.522389 a.u.    68.638 eV
 541( 0) :     2.550405 a.u.    69.400 eV
 542( 0) :     2.564794 a.u.    69.792 eV
 543( 0) :     2.565191 a.u.    69.802 eV
 544( 0) :     2.584168 a.u.    70.319 eV
 545( 0) :     2.588191 a.u.    70.428 eV
 546( 0) :     2.599970 a.u.    70.749 eV
 547( 0) :     2.600294 a.u.    70.758 eV
 548( 0) :     2.616880 a.u.    71.209 eV
 549( 0) :     2.617130 a.u.    71.216 eV
 550( 0) :     2.632939 a.u.    71.646 eV
 551( 0) :     2.633244 a.u.    71.654 eV
 552( 0) :     2.633351 a.u.    71.657 eV
 553( 0) :     2.671476 a.u.    72.695 eV
 554( 0) :     2.682694 a.u.    73.000 eV
 555( 0) :     2.694592 a.u.    73.324 eV
 556( 0) :     2.695119 a.u.    73.338 eV
 557( 0) :     2.739689 a.u.    74.551 eV
 558( 0) :     2.745264 a.u.    74.702 eV
 559( 0) :     2.747832 a.u.    74.772 eV
 560( 0) :     2.747889 a.u.    74.774 eV
 561( 0) :     2.757889 a.u.    75.046 eV
 562( 0) :     2.757978 a.u.    75.048 eV
 563( 0) :     2.768169 a.u.    75.326 eV
 564( 0) :     2.768583 a.u.    75.337 eV
 565( 0) :     2.777285 a.u.    75.574 eV
 566( 0) :     2.785214 a.u.    75.790 eV
 567( 0) :     2.785695 a.u.    75.803 eV
 568( 0) :     2.791159 a.u.    75.951 eV
 569( 0) :     2.795763 a.u.    76.077 eV
 570( 0) :     2.796515 a.u.    76.097 eV
 571( 0) :     2.798643 a.u.    76.155 eV
 572( 0) :     2.818556 a.u.    76.697 eV
 573( 0) :     2.819761 a.u.    76.730 eV
 574( 0) :     2.856666 a.u.    77.734 eV
 575( 0) :     2.859534 a.u.    77.812 eV
 576( 0) :     2.860243 a.u.    77.831 eV
 577( 0) :     2.875597 a.u.    78.249 eV
 578( 0) :     2.875830 a.u.    78.255 eV
 579( 0) :     2.910399 a.u.    79.196 eV
 580( 0) :     2.911313 a.u.    79.221 eV
 581( 0) :     2.922665 a.u.    79.530 eV
 582( 0) :     2.922930 a.u.    79.537 eV
 583( 0) :     2.925468 a.u.    79.606 eV
 584( 0) :     2.934098 a.u.    79.841 eV
 585( 0) :     2.962887 a.u.    80.624 eV
 586( 0) :     2.963991 a.u.    80.654 eV
 587( 0) :     2.975283 a.u.    80.962 eV
 588( 0) :     2.986132 a.u.    81.257 eV
 589( 0) :     2.986900 a.u.    81.278 eV
 590( 0) :     3.062785 a.u.    83.343 eV
 591( 0) :     3.063611 a.u.    83.365 eV
 592( 0) :     3.067215 a.u.    83.463 eV
 593( 0) :     3.140742 a.u.    85.464 eV
 594( 0) :     3.800209 a.u.   103.409 eV
 595( 0) :     3.805250 a.u.   103.546 eV
 596( 0) :     3.835876 a.u.   104.379 eV
 597( 0) :     3.850214 a.u.   104.770 eV
 598( 0) :     3.886426 a.u.   105.755 eV
 599( 0) :     3.886863 a.u.   105.767 eV
 600( 0) :     5.167483 a.u.   140.614 eV
 601( 0) :     5.167635 a.u.   140.618 eV
 602( 0) :     5.176455 a.u.   140.858 eV
 603( 0) :     5.181859 a.u.   141.006 eV
 604( 0) :     5.182402 a.u.   141.020 eV
 605( 0) :     5.184938 a.u.   141.089 eV
 606( 0) :     5.280463 a.u.   143.689 eV
 607( 0) :     5.280621 a.u.   143.693 eV
 608( 0) :     5.285618 a.u.   143.829 eV
 609( 0) :     5.287497 a.u.   143.880 eV
 610( 0) :     5.287605 a.u.   143.883 eV
 611( 0) :     5.289650 a.u.   143.939 eV
 612( 0) :     5.298166 a.u.   144.170 eV
 613( 0) :     5.298472 a.u.   144.179 eV
 614( 0) :     5.300962 a.u.   144.247 eV
 615( 0) :     5.318805 a.u.   144.732 eV
 616( 0) :     5.319250 a.u.   144.744 eV
 617( 0) :     5.338313 a.u.   145.263 eV
 618( 0) :     5.371313 a.u.   146.161 eV
 619( 0) :     5.371924 a.u.   146.177 eV
 620( 0) :     5.383367 a.u.   146.489 eV
 621( 0) :     5.398994 a.u.   146.914 eV
 622( 0) :     5.399724 a.u.   146.934 eV
 623( 0) :     5.402986 a.u.   147.023 eV
 624( 0) :     5.416934 a.u.   147.402 eV
 625( 0) :     5.455592 a.u.   148.454 eV
 626( 0) :     5.456147 a.u.   148.469 eV
 627( 0) :     5.456425 a.u.   148.477 eV
 628( 0) :     5.486307 a.u.   149.290 eV
 629( 0) :     5.487436 a.u.   149.321 eV
 630( 0) :     5.487605 a.u.   149.325 eV
 631( 0) :     5.506897 a.u.   149.850 eV
 632( 0) :     5.520179 a.u.   150.212 eV
 633( 0) :     5.521264 a.u.   150.241 eV
 634( 0) :     5.546057 a.u.   150.916 eV
 635( 0) :     5.546196 a.u.   150.920 eV
 636( 0) :     5.557341 a.u.   151.223 eV
 637( 0) :     5.585245 a.u.   151.982 eV
 638( 0) :     5.587592 a.u.   152.046 eV
 639( 0) :     5.588377 a.u.   152.067 eV
 640( 0) :     5.646798 a.u.   153.657 eV
 641( 0) :     5.648178 a.u.   153.695 eV
 642( 0) :     5.669348 a.u.   154.271 eV
 643( 0) :     5.729747 a.u.   155.914 eV
 644( 0) :     5.730290 a.u.   155.929 eV
 645( 0) :     5.745863 a.u.   156.353 eV
 646( 0) :     5.753167 a.u.   156.552 eV
 647( 0) :     5.758662 a.u.   156.701 eV
 648( 0) :     5.759146 a.u.   156.714 eV
 649( 0) :     5.839234 a.u.   158.894 eV
 650( 0) :     5.839479 a.u.   158.900 eV
 651( 0) :     5.894791 a.u.   160.405 eV
 652( 0) :     5.990153 a.u.   163.000 eV
 653( 0) :     5.990410 a.u.   163.007 eV
 654( 0) :     6.074660 a.u.   165.300 eV
 655( 0) :     6.075391 a.u.   165.320 eV
 656( 0) :     6.085594 a.u.   165.597 eV
 657( 0) :     6.096909 a.u.   165.905 eV
 658( 0) :     6.106752 a.u.   166.173 eV
 659( 0) :     6.107359 a.u.   166.190 eV
 660( 0) :     6.114839 a.u.   166.393 eV
 661( 0) :     6.115538 a.u.   166.412 eV
 662( 0) :     6.122037 a.u.   166.589 eV
 663( 0) :     7.460365 a.u.   203.007 eV
 664( 0) :    29.649887 a.u.   806.814 eV
 665( 0) :    29.717659 a.u.   808.659 eV
 666( 0) :    29.717843 a.u.   808.664 eV
 667( 0) :    29.782776 a.u.   810.431 eV
 668( 0) :    29.793207 a.u.   810.714 eV
 669( 0) :    29.793381 a.u.   810.719 eV
 670( 0) :    29.832319 a.u.   811.779 eV
 671( 0) :    30.009986 a.u.   816.613 eV
 672( 0) :    30.010303 a.u.   816.622 eV
 673( 0) :    30.019127 a.u.   816.862 eV
 674( 0) :    30.035444 a.u.   817.306 eV
 675( 0) :    30.041116 a.u.   817.460 eV
 676( 0) :    30.041417 a.u.   817.469 eV
 677( 0) :    30.108532 a.u.   819.295 eV
 678( 0) :    30.108614 a.u.   819.297 eV
 679( 0) :    30.148946 a.u.   820.395 eV
 680( 0) :    30.240199 a.u.   822.878 eV
 681( 0) :    30.240286 a.u.   822.880 eV
 682( 0) :    30.295780 a.u.   824.390 eV
 683( 0) :    30.295948 a.u.   824.395 eV
 684( 0) :    30.319182 a.u.   825.027 eV
 685( 0) :    30.321321 a.u.   825.085 eV
 686( 0) :    30.329186 a.u.   825.299 eV
 687( 0) :    30.329485 a.u.   825.307 eV
 688( 0) :    30.333829 a.u.   825.425 eV
 689( 0) :    30.338720 a.u.   825.559 eV
 690( 0) :    30.338961 a.u.   825.565 eV
 691( 0) :    36.673741 a.u.   997.943 eV
 692( 0) :    36.681779 a.u.   998.162 eV
 693( 0) :    36.682059 a.u.   998.170 eV
 694( 0) :    36.763989 a.u.  1000.399 eV
 695( 0) :    36.766105 a.u.  1000.457 eV
 696( 0) :    36.774630 a.u.  1000.689 eV
 697( 0) :    36.863045 a.u.  1003.094 eV
 698( 0) :    36.878816 a.u.  1003.524 eV
 699( 0) :    36.878986 a.u.  1003.528 eV
 700( 0) :    36.893361 a.u.  1003.919 eV
 701( 0) :    36.893367 a.u.  1003.920 eV
 702( 0) :    36.893483 a.u.  1003.923 eV
 703( 0) :    36.894514 a.u.  1003.951 eV
 704( 0) :    36.905612 a.u.  1004.253 eV
 705( 0) :    36.905804 a.u.  1004.258 eV
 706( 0) :    36.909052 a.u.  1004.346 eV
 707( 0) :    36.909167 a.u.  1004.350 eV
 708( 0) :    36.939127 a.u.  1005.165 eV
 709( 0) :    36.962146 a.u.  1005.791 eV
 710( 0) :    36.962251 a.u.  1005.794 eV
 711( 0) :    36.978845 a.u.  1006.246 eV
 712( 0) :    36.987457 a.u.  1006.480 eV
 713( 0) :    37.012393 a.u.  1007.158 eV
 714( 0) :    37.012885 a.u.  1007.172 eV
 715( 0) :    37.015764 a.u.  1007.250 eV
 716( 0) :    37.026649 a.u.  1007.546 eV
 717( 0) :    37.032346 a.u.  1007.701 eV
 718( 0) :    37.105366 a.u.  1009.688 eV
 719( 0) :    37.105765 a.u.  1009.699 eV
 720( 0) :    37.111698 a.u.  1009.861 eV
 721( 0) :    37.245969 a.u.  1013.514 eV
 722( 0) :    37.253828 a.u.  1013.728 eV
 723( 0) :    37.269553 a.u.  1014.156 eV
 724( 0) :    37.358645 a.u.  1016.580 eV
 725( 0) :    37.371089 a.u.  1016.919 eV
 726( 0) :    37.371712 a.u.  1016.936 eV
 727( 0) :    41.163220 a.u.  1120.108 eV
-------
TIMINGS
-------

Total SCF time: 0 days 0 hours 1 min 9 sec 

Total time                  ....      69.859 sec
Sum of individual times     ....      66.397 sec  ( 95.0%)

Fock matrix formation       ....      43.862 sec  ( 62.8%)
  Split-RI-J                ....      24.965 sec  ( 56.9% of F)
  XC integration            ....      12.077 sec  ( 27.5% of F)
    Basis function eval.    ....       0.383 sec  (  3.2% of XC)
    Density eval.           ....       0.962 sec  (  8.0% of XC)
    XC-Functional eval.     ....       0.050 sec  (  0.4% of XC)
    XC-Potential eval.      ....       1.349 sec  ( 11.2% of XC)
Diagonalization             ....       8.299 sec  ( 11.9%)
Density matrix formation    ....       0.672 sec  (  1.0%)
Population analysis         ....       3.986 sec  (  5.7%)
Initial guess               ....       0.801 sec  (  1.1%)
Orbital Transformation      ....       0.000 sec  (  0.0%)
Orbital Orthonormalization  ....       0.000 sec  (  0.0%)
DIIS solution               ....       5.833 sec  (  8.4%)
Grid generation             ....       2.944 sec  (  4.2%)

-------------------------   --------------------
FINAL SINGLE POINT ENERGY     -1103.167863585031
-------------------------   --------------------

   --->>> SOC part of D-tensor requested, so NeedSOC=true

                            ***************************************
                            *     ORCA property calculations      *
                            ***************************************

                                    ---------------------
                                    Active property flags
                                    ---------------------
   (+) Dipole Moment
   (+) D-tensor
   (+) Spin-Orbit Integrals are needed


------------------------------------------------------------------------------
                       ORCA ELECTRIC PROPERTIES CALCULATION
------------------------------------------------------------------------------

Dipole Moment Calculation                       ... on
Quadrupole Moment Calculation                   ... off
Polarizability Calculation                      ... off
GBWName                                         ... zfs.gbw
Electron density file                           ... zfs.scfp
The origin for moment calculation is the CENTER OF MASS  = ( 0.000005,  0.000054 -3.167486)

-------------
DIPOLE MOMENT
-------------
                                X             Y             Z
Electronic contribution:      0.00362       0.00752       1.06669
Nuclear contribution   :     -0.00074      -0.00374      -0.32886
                        -----------------------------------------
Total Dipole Moment    :      0.00288       0.00378       0.73783
                        -----------------------------------------
Magnitude (a.u.)       :      0.73784
Magnitude (Debye)      :      1.87545



--------------------
Rotational spectrum 
--------------------
 
Rotational constants in cm-1:     0.009246     0.009141     0.009141 
Rotational constants in MHz :   277.183097   274.048600   274.045280 

 Dipole components along the rotational axes: 
x,y,z [a.u.] :     0.737824     0.004688    -0.002383 
x,y,z [Debye]:     1.875401     0.011917    -0.006057 

 


           ************************************************************
           *        Program running with 72 parallel MPI-processes    *
           *              working on a shared directory               *
           ************************************************************
------------------------------------------------------------------------------
                         ORCA SPIN-ORBIT COUPLING CALCULATION
------------------------------------------------------------------------------

GBW file                                    ... zfs.gbw
Input density                               ... zfs.scfp
Output integrals                            ... zfs
Operator type                               ... Mean-field/Effective potential
   One-Electron Terms                       ... 1
   Coulomb Contribution                     ... 2
   Exchange Contribution                    ... 3
   Correlation Contribution                 ... 0
   Maximum number of centers                ... 4
Setting up the integration grid             ... done
Evaluating density on the grid              ... (NumEl=  205.998718) done
Evaluating Coulomb term semi-analytically   ... done
One-Center Exchange (+SOO)                  ... done
Evaluating the spin-orbit operator          ... done
Total time for SOC: 68.200


           ************************************************************
           *        Program running with 72 parallel MPI-processes    *
           *              working on a shared directory               *
           ************************************************************
------------------------------------------------------------------------------
                                ORCA EPR/NMR CALCULATION
------------------------------------------------------------------------------

GBWName                      ... zfs.gbw
Electron density file        ... zfs.scfp
Spin density file            ... zfs.scfr
Spin-orbit integrals         ... zfs
Multiplicity                 ... 3
g-tensor                     ... 0
NMR chemical shifts          ... 0
D-tensor                     ... spin-spin and spin-orbit
D(SS)-algorithm              ... spin-density from UNOs
D(SOC)-algorithm             ... CP (=Coupled-perturbed)
Active orbitals for UNO spin density= 102 .. 103

Starting the spin-spin zero-field-splitting computation (UNO)...
                        ... done with spin-spin calculation

Starting the spin-orbit zero-field-splitting computation (CP)...
Transforming integrals                       ... Max(Pert)=   5.6118e-06
Warning: Perturbation too small - adjusting
Transforming integrals                       ... Max(Pert)=   6.1112e-05
Warning: Perturbation too small - adjusting
Transforming integrals                       ... Max(Pert)=   6.6551e-04
Warning: Perturbation too small - adjusting
Transforming integrals                       ... Max(Pert)=   7.2474e-03
done
    ... no HF exchange - skipping linear equations
ZFS-Tensor - using the prefactors
   -1/(4S**2) for same spin
    1/(2*S*(2*S-1)) for alpha->beta
    1/((S+1)*(2*S+1)) for beta->alpha
                        ... done with spin-orbit calculation

---------------------------
ZERO-FIELD-SPLITTING TENSOR
---------------------------

raw-matrix : 
   0.019904    -0.000272    -0.000016  
  -0.000272     0.019977     0.000003  
  -0.000016     0.000003     0.087142  

Tensor is right-handed
diagonalized D matrix : 
   0.019666     0.020215     0.087142  

   0.752740    -0.658318    -0.000245  
   0.658318     0.752740     0.000048  
   0.000153    -0.000197     1.000000  


Direction X=1 Y=0 Z=2
D   =     0.067201  cm**-1
E/D =     0.004089

SPIN-SPIN-PART
                   0          1          2    
      0      -0.021927  -0.000269   0.000002
      1      -0.000269  -0.021863  -0.000003
      2       0.000002  -0.000003   0.043790
Exchange and Coulomb parts of SS (raw)
Coulomb
                   0          1          2    
      0      -0.020602   0.001597   0.000016
      1       0.001597  -0.011583   0.000043
      2       0.000016   0.000043   0.032185
Exchange
                   0          1          2    
      0      -0.001325  -0.001866  -0.000014
      1      -0.001866  -0.010279  -0.000047
      2      -0.000014  -0.000047   0.011605
One-, two-, three- and four-center SS contributions (raw)
One-Center            (AA|AA):
                   0          1          2    
      0      -0.001608   0.000159  -0.000042
      1       0.000159  -0.001442   0.000076
      2      -0.000042   0.000076   0.003050
Two-Center-Coulomb    (AA|BB):
                   0          1          2    
      0      -0.319640   0.046223  -0.000811
      1       0.046223  -0.381543  -0.000694
      2      -0.000811  -0.000694   0.701184
Two-Center-Exchange   (AB|BA):
                   0          1          2    
      0      -0.014733  -0.001016   0.000589
      1      -0.001016  -0.014659   0.000015
      2       0.000589   0.000015   0.029392
Two-Center-hybrid     (AA|AB):
                   0          1          2    
      0       0.001122  -0.000668   0.000143
      1      -0.000668   0.001830  -0.000700
      2       0.000143  -0.000700  -0.002952
Three-Center-Coulomb  (AA|BC):
                   0          1          2    
      0       0.545099  -0.081246   0.005823
      1      -0.081246   0.658226  -0.001217
      2       0.005823  -0.001217  -1.203326
Three-Center-Exchange (AB|AC):
                   0          1          2    
      0      -0.003604  -0.000316  -0.002134
      1      -0.000316  -0.004471   0.001444
      2      -0.002134   0.001444   0.008075
Four-Center           (AB|CD):
                   0          1          2    
      0      -0.228564   0.036595  -0.003565
      1       0.036595  -0.279803   0.001073
      2      -0.003565   0.001073   0.508367
ALPHA-PART
                   0          1          2    
      0      -0.113506  -0.000007   0.000007
      1      -0.000007  -0.113512  -0.000001
      2       0.000007  -0.000001  -0.108837
BETA-PART
                   0          1          2    
      0      -0.111417  -0.000014   0.000007
      1      -0.000014  -0.111415   0.000007
      2       0.000007   0.000007  -0.104868
ALPHA->BETA-PART
                   0          1          2    
      0       0.230141   0.000013  -0.000032
      1       0.000013   0.230154   0.000003
      2      -0.000032   0.000003   0.222842
BETA->ALPHA-PART
                   0          1          2    
      0       0.036613   0.000005  -0.000000
      1       0.000005   0.036612  -0.000002
      2      -0.000000  -0.000002   0.034215

Individual contributions (in cm**-1)
                                   D         E
SPIN-SPIN                  :   0.06568    0.00027
  Exchange vs Coulomb
  Coulomb                  :   0.04828   -0.00098
  Exchange                 :   0.01741    0.00125
  One through four center contributions:
  1-center                 :   0.00457   -0.00015
  2-center-Coulomb         :   1.05178   -0.04993
  2-center-Exchange        :   0.04409    0.00101
  2-center-Hybrid          :  -0.00443    0.00071
  3-center-Coulomb         :  -1.80499    0.08806
  3-center-Exchange        :   0.01211    0.00026
  4-center                 :   0.76255   -0.03968
SPIN-ORBIT                 :   0.00152    0.00000
SOMO->VMO  (alpha->alpha)  :   0.00467    0.00001
DOMO->SOMO (beta ->beta )  :   0.00655    0.00001
SOMO->SOMO (alpha->beta )  :  -0.00731   -0.00001
DOMO->VMO  (beta ->alpha)  :  -0.00240   -0.00000


Timings for individual modules:

Sum of individual times         ...      266.934 sec (=   4.449 min)
GTO integral calculation        ...       14.714 sec (=   0.245 min)   5.5 %
Spin-Orbit-Coupling Matrices    ...       68.189 sec (=   1.136 min)  25.5 %
SCF iterations                  ...       79.041 sec (=   1.317 min)  29.6 %
EPR/NMR calculation             ...      104.989 sec (=   1.750 min)  39.3 %
                             ****ORCA TERMINATED NORMALLY****
TOTAL RUN TIME: 0 days 0 hours 4 minutes 41 seconds 570 msec
