
                                 *****************
                                 * O   R   C   A *
                                 *****************

           --- An Ab Initio, DFT and Semiempirical electronic structure package ---

                  #######################################################
                  #                        -***-                        #
                  #          Department of theory and spectroscopy      #
                  #               Directorship: Frank Neese             #
                  #        Max Planck Institute fuer Kohlenforschung    #
                  #                Kaiser Wilhelm Platz 1               #
                  #                 D-45470 Muelheim/Ruhr               #
                  #                      Germany                        #
                  #                                                     #
                  #                  All rights reserved                #
                  #                        -***-                        #
                  #######################################################


                         Program Version 4.2.1 -  RELEASE  -


 With contributions from (in alphabetic order):
   Daniel Aravena         : Magnetic Suceptibility
   Michael Atanasov       : Ab Initio Ligand Field Theory (pilot matlab implementation)
   Alexander A. Auer      : GIAO ZORA, VPT2
   Ute Becker             : Parallelization
   Giovanni Bistoni       : ED, misc. LED, open-shell LED, HFLD
   Martin Brehm           : Molecular dynamics
   Dmytro Bykov           : SCF Hessian
   Vijay G. Chilkuri      : MRCI spin determinant printing, contributions to CSF-ICE
   Dipayan Datta          : RHF DLPNO-CCSD density
   Achintya Kumar Dutta   : EOM-CC, STEOM-CC
   Dmitry Ganyushin       : Spin-Orbit,Spin-Spin,Magnetic field MRCI
   Miquel Garcia          : C-PCM Hessian, Gaussian charge scheme
   Yang Guo               : DLPNO-NEVPT2, CIM, IAO-localization
   Andreas Hansen         : Spin unrestricted coupled pair/coupled cluster methods
   Benjamin Helmich-Paris : CASSCF linear response (MC-RPA)
   Lee Huntington         : MR-EOM, pCC
   Robert Izsak           : Overlap fitted RIJCOSX, COSX-SCS-MP3, EOM
   Christian Kollmar      : KDIIS, OOCD, Brueckner-CCSD(T), CCSD density
   Simone Kossmann        : Meta GGA functionals, TD-DFT gradient, OOMP2, MP2 Hessian
   Martin Krupicka        : AUTO-CI
   Lucas Lang             : DCDCAS
   Dagmar Lenk            : GEPOL surface, SMD
   Dimitrios Liakos       : Extrapolation schemes; Compound Job, initial MDCI parallelization
   Dimitrios Manganas     : Further ROCIS development; embedding schemes
   Dimitrios Pantazis     : SARC Basis sets
   Taras Petrenko         : DFT Hessian,TD-DFT gradient, ASA, ECA, R-Raman, ABS, FL, XAS/XES, NRVS
   Peter Pinski           : DLPNO-MP2, DLPNO-MP2 Gradient
   Christoph Reimann      : Effective Core Potentials
   Marius Retegan         : Local ZFS, SOC
   Christoph Riplinger    : Optimizer, TS searches, QM/MM, DLPNO-CCSD(T), (RO)-DLPNO pert. Triples
   Tobias Risthaus        : Range-separated hybrids, TD-DFT gradient, RPA, STAB
   Michael Roemelt        : Original ROCIS implementation
   Masaaki Saitow         : Open-shell DLPNO-CCSD energy and density
   Barbara Sandhoefer     : DKH picture change effects
   Avijit Sen             : IP-ROCIS
   Kantharuban Sivalingam : CASSCF convergence, NEVPT2, FIC-MRCI
   Bernardo de Souza      : ESD, SOC TD-DFT
   Georgi Stoychev        : AutoAux, RI-MP2 NMR
   Willem Van den Heuvel  : Paramagnetic NMR
   Boris Wezisla          : Elementary symmetry handling
   Frank Wennmohs         : Technical directorship


 We gratefully acknowledge several colleagues who have allowed us to
 interface, adapt or use parts of their codes:
   Stefan Grimme, W. Hujo, H. Kruse,             : VdW corrections, initial TS optimization,
                  C. Bannwarth                     DFT functionals, gCP, sTDA/sTD-DF
   Ed Valeev, F. Pavosevic, A. Kumar             : LibInt (2-el integral package), F12 methods
   Garnet Chan, S. Sharma, J. Yang, R. Olivares  : DMRG
   Ulf Ekstrom                                   : XCFun DFT Library
   Mihaly Kallay                                 : mrcc  (arbitrary order and MRCC methods)
   Andreas Klamt, Michael Diedenhofen            : otool_cosmo (COSMO solvation model)
   Jiri Pittner, Ondrej Demel                    : Mk-CCSD
   Frank Weinhold                                : gennbo (NPA and NBO analysis)
   Christopher J. Cramer and Donald G. Truhlar   : smd solvation model
   Lars Goerigk                                  : TD-DFT with DH, B97 family of functionals
   V. Asgeirsson, H. Jonsson                     : NEB implementation
   FAccTs GmbH                                   : IRC, NEB, NEB-TS, Multilevel, MM, QM/MM, CI optimization
   S Lehtola, MJT Oliveira, MAL Marques          : LibXC Library


 Your calculation uses the libint2 library for the computation of 2-el integrals
 For citations please refer to: http://libint.valeyev.net

 Your ORCA version has been built with support for libXC version: 4.2.3
 For citations please refer to: https://tddft.org/programs/libxc/

 This ORCA versions uses:
   CBLAS   interface :  Fast vector & matrix operations
   LAPACKE interface :  Fast linear algebra routines
   SCALAPACK package :  Parallel linear algebra routines




***************************************
The coordinates will be read from file: nv.xyz
***************************************


----- Orbital basis set information -----
Your calculation utilizes the basis: EPR-II
   V. Barone, in Recent Advances in Density Functional Methods, Part 1 (ed. D. P. Chong), World Scientific, Singapore, 1995, p. 287.

----- AuxJ basis set information -----
Your calculation utilizes the AutoAux generation procedure.
  G. L. Stoychev, A. A. Auer, F. Neese, J. Chem. Theory Comput. 13, 554 (2017)

----- AuxC basis set information -----
Your calculation utilizes the AutoAux generation procedure.
  G. L. Stoychev, A. A. Auer, F. Neese, J. Chem. Theory Comput. 13, 554 (2017)

----- AuxJK basis set information -----
Your calculation utilizes the AutoAux generation procedure.
  G. L. Stoychev, A. A. Auer, F. Neese, J. Chem. Theory Comput. 13, 554 (2017)

================================================================================
                                        WARNINGS
                       Please study these warnings very carefully!
================================================================================


WARNING: your system is open-shell and RHF/RKS was chosen
  ===> : WILL SWITCH to UHF/UKS


INFO   : the flag for use of LIBINT has been found!

================================================================================
                                       INPUT FILE
================================================================================
NAME = zfs.in
|  1> # Use EPR-II is a special basis set for epr, autoaux creates a large auxiliary basis
|  2> !PBE EPR-II AUTOAUX RIJCOSX
|  3> 
|  4> # use original (unoptimized) cluster xyz
|  5> *xyzfile -1 3 nv.xyz
|  6> 
|  7> # Parallelization
|  8> %PAL NPROCS 72 END
|  9> 
| 10> # ZFS calculation
| 11> %EPRNMR DTENSOR SSANDSO
| 12>     DSS     UNO
| 13>     DSOC    CP
| 14> END
| 15> 
| 16>                          ****END OF INPUT****
================================================================================

                       ****************************
                       * Single Point Calculation *
                       ****************************

---------------------------------
CARTESIAN COORDINATES (ANGSTROEM)
---------------------------------
  C     -0.050345    1.538785   -2.249811
  C      1.236094    0.768725   -4.258023
  C     -2.560564    1.368771   -2.199697
  C      0.094934   -2.901814   -2.199804
  C      2.465619    1.533204   -2.199700
  C     -2.499808   -0.089037   -0.144983
  C      2.500282    0.074543   -0.144986
  C     -1.185587   -2.202574   -0.145035
  C      1.172791    2.209421   -0.144933
  C     -1.314696    2.128042   -0.144931
  C      1.327017   -2.120374   -0.145037
  C      1.207479    0.750814    0.395617
  C      0.046494   -1.421129    0.395566
  C     -1.253971    0.670286    0.395618
  C     -1.239173   -0.770435   -3.737621
  C     -0.047720    1.458505   -3.737569
  C      1.286873   -0.687795   -3.737623
  C     -2.499007   -0.088266   -1.693673
  C      2.499429    0.075259   -1.693676
  C     -1.184577   -2.202140   -1.693726
  C      1.173021    2.208396   -1.693623
  C     -1.314861    2.127005   -1.693621
  C      1.325977   -2.120006   -1.693727
  C     -1.307412   -0.812906   -2.249865
  C      1.357746   -0.725714   -2.249867
  C     -1.283704    0.686289   -4.258021
  C      0.047588   -1.454702   -4.258075
  N      0.000000    0.000000    0.000000
  H      2.094727    1.302624   -3.907906
  H      1.230004    0.764966   -5.328003
  H     -2.576048    1.377073   -3.269544
  H     -3.447109    1.842655   -1.833101
  H      0.127725   -3.904116   -1.826663
  H      0.095735   -2.926344   -3.269519
  H      2.480524    1.542500   -3.269548
  H      3.319294    2.064020   -1.833106
  H     -2.478126   -1.099054    0.207581
  H     -3.384735    0.401565    0.203028
  H      3.354654    0.613493    0.207839
  H      2.535787   -0.936746    0.202756
  H     -1.146019   -3.211970    0.207753
  H     -2.079133   -1.727690    0.202744
  H      0.287258    2.695641    0.207668
  H      2.040136    2.730476    0.203076
  H     -2.208633    2.598461    0.207895
  H     -0.456653    2.664421    0.202848
  H      2.190870   -1.596602    0.207562
  H      1.344600   -3.132057    0.202936
  H      1.218090    0.757384    1.465539
  H      0.046904   -1.433641    1.465488
  H     -1.264987    0.676149    1.465541
  H     -2.092564   -1.301074   -4.105093
  H     -0.080580    2.462896   -4.105005
  H      2.173122   -1.161521   -4.105096
  H     -3.362724   -0.616625   -2.039696
  H      3.395834   -0.395516   -2.039701
  H     -2.040490   -2.743048   -2.039749
  H      1.147299    3.220589   -2.039611
  H     -1.355354    3.138714   -2.039609
  H      2.215415   -2.603815   -2.039752
  H     -1.277586    0.683044   -5.328007
  H     -2.175340    1.162894   -3.907684
  H      0.080650   -2.465262   -3.907994
  H      0.047352   -1.447511   -5.328055

----------------------------
CARTESIAN COORDINATES (A.U.)
----------------------------
  NO LB      ZA    FRAG     MASS         X           Y           Z
   0 C     6.0000    0    12.011   -0.095138    2.907882   -4.251526
   1 C     6.0000    0    12.011    2.335879    1.452680   -8.046497
   2 C     6.0000    0    12.011   -4.838765    2.586603   -4.156825
   3 C     6.0000    0    12.011    0.179399   -5.483635   -4.157026
   4 C     6.0000    0    12.011    4.659344    2.897336   -4.156831
   5 C     6.0000    0    12.011   -4.723953   -0.168255   -0.273977
   6 C     6.0000    0    12.011    4.724848    0.140865   -0.273984
   7 C     6.0000    0    12.011   -2.240435   -4.162262   -0.274077
   8 C     6.0000    0    12.011    2.216254    4.175201   -0.273883
   9 C     6.0000    0    12.011   -2.484415    4.021417   -0.273880
  10 C     6.0000    0    12.011    2.507698   -4.006925   -0.274081
  11 C     6.0000    0    12.011    2.281805    1.418832    0.747607
  12 C     6.0000    0    12.011    0.087861   -2.685545    0.747512
  13 C     6.0000    0    12.011   -2.369662    1.266658    0.747611
  14 C     6.0000    0    12.011   -2.341697   -1.455912   -7.063080
  15 C     6.0000    0    12.011   -0.090178    2.756174   -7.062982
  16 C     6.0000    0    12.011    2.431838   -1.299744   -7.063084
  17 C     6.0000    0    12.011   -4.722439   -0.166799   -3.200578
  18 C     6.0000    0    12.011    4.723237    0.142219   -3.200585
  19 C     6.0000    0    12.011   -2.238526   -4.161441   -3.200678
  20 C     6.0000    0    12.011    2.216688    4.173264   -3.200484
  21 C     6.0000    0    12.011   -2.484728    4.019456   -3.200481
  22 C     6.0000    0    12.011    2.505734   -4.006231   -3.200681
  23 C     6.0000    0    12.011   -2.470651   -1.536169   -4.251629
  24 C     6.0000    0    12.011    2.565767   -1.371401   -4.251633
  25 C     6.0000    0    12.011   -2.425850    1.296899   -8.046494
  26 C     6.0000    0    12.011    0.089928   -2.748989   -8.046595
  27 N     7.0000    0    14.007    0.000000    0.000000    0.000000
  28 H     1.0000    0     1.008    3.958460    2.461602   -7.384872
  29 H     1.0000    0     1.008    2.324371    1.445576  -10.068467
  30 H     1.0000    0     1.008   -4.868024    2.602291   -6.178543
  31 H     1.0000    0     1.008   -6.514091    3.482113   -3.464060
  32 H     1.0000    0     1.008    0.241366   -7.377711   -3.451893
  33 H     1.0000    0     1.008    0.180913   -5.529988   -6.178495
  34 H     1.0000    0     1.008    4.687512    2.914903   -6.178550
  35 H     1.0000    0     1.008    6.272557    3.900432   -3.464069
  36 H     1.0000    0     1.008   -4.682980   -2.076912    0.392271
  37 H     1.0000    0     1.008   -6.396222    0.758849    0.383668
  38 H     1.0000    0     1.008    6.339377    1.159334    0.392758
  39 H     1.0000    0     1.008    4.791944   -1.770194    0.383154
  40 H     1.0000    0     1.008   -2.165662   -6.069743    0.392597
  41 H     1.0000    0     1.008   -3.928992   -3.264861    0.383131
  42 H     1.0000    0     1.008    0.542838    5.094023    0.392436
  43 H     1.0000    0     1.008    3.855298    5.159853    0.383759
  44 H     1.0000    0     1.008   -4.173712    4.910380    0.392864
  45 H     1.0000    0     1.008   -0.862949    5.035026    0.383326
  46 H     1.0000    0     1.008    4.140144   -3.017140    0.392235
  47 H     1.0000    0     1.008    2.540926   -5.918729    0.383494
  48 H     1.0000    0     1.008    2.301856    1.431248    2.769468
  49 H     1.0000    0     1.008    0.088637   -2.709189    2.769372
  50 H     1.0000    0     1.008   -2.390478    1.277737    2.769471
  51 H     1.0000    0     1.008   -3.954373   -2.458673   -7.757501
  52 H     1.0000    0     1.008   -0.152274    4.654198   -7.757336
  53 H     1.0000    0     1.008    4.106606   -2.194956   -7.757507
  54 H     1.0000    0     1.008   -6.354628   -1.165252   -3.854467
  55 H     1.0000    0     1.008    6.417196   -0.747418   -3.854476
  56 H     1.0000    0     1.008   -3.855968   -5.183610   -3.854568
  57 H     1.0000    0     1.008    2.168081    6.086032   -3.854305
  58 H     1.0000    0     1.008   -2.561248    5.931310   -3.854302
  59 H     1.0000    0     1.008    4.186527   -4.920498   -3.854573
  60 H     1.0000    0     1.008   -2.414287    1.290765  -10.068475
  61 H     1.0000    0     1.008   -4.110797    2.197552   -7.384452
  62 H     1.0000    0     1.008    0.152406   -4.658671   -7.385038
  63 H     1.0000    0     1.008    0.089482   -2.735400  -10.068564

--------------------------------
INTERNAL COORDINATES (ANGSTROEM)
--------------------------------
 C      0   0   0     0.000000000000     0.00000000     0.00000000
 C      1   0   0     2.506159189200     0.00000000     0.00000000
 C      1   2   0     2.516468736810   120.47980034     0.00000000
 C      2   1   3     4.360203420965    75.28951498   283.77948100
 C      1   2   3     2.516468892460    60.13666437   174.71907252
 C      3   1   2     2.520068779635    91.79194714   121.28833099
 C      5   1   2     2.520068762659    91.79201992   236.05607764
 C      6   3   1     2.488818367689   120.26272266   304.19020215
 C      7   5   1     2.513948947648    60.08027954   306.41229827
 C      9   7   5     2.488817353124   120.00002878   109.82545099
 C      7   5   1     2.488816777002   120.26270160    55.80983234
 C      7   5   1     1.555934702602    91.16206224   325.68709312
 C      8   6   3     1.555934052125    89.52038817    91.06561728
 C      6   3   1     1.555934061970    91.16212210    34.31292441
 C      3   1   2     2.947455098534    65.88562640    32.41919375
 C      1   2   3     1.489925410441    35.15414081   323.08151359
 C      2   1   3     1.547529030698    92.09616882   273.73521380
 C      3   1   2     1.543634496792    91.74891425    85.78589528
 C      5   1   2     1.543634475456    91.74900364   271.55851522
 C      4   2   1     1.543634426451    89.43441787    30.89183768
 C      1   2   3     1.501448810717    90.89532349   191.81515946
 C      1   2   3     1.501449343912   148.15946935   329.09681935
 C      4   2   1     1.543633746280    61.29331668   278.87882686
 C     15   3   1     1.489925437899    58.60967735    79.25168917
 C     17   2   1     1.489925476657   111.18022711   326.95804088
 C     16   1   2     1.547528289977   111.18021292   121.75553487
 C     17   2   1     1.547528292832   109.09004219    89.92306827
 N     12   7   5     1.475886138852   111.44049746    93.52608414
 H      2   1   3     1.069990716808    89.79352602   164.26253077
 H      2   1   3     1.070004294790   143.07770560    40.86734304
 H      3   1   2     1.069991509780    89.65616668   336.17389647
 H      3   1   2     1.070008908201   143.45442864   213.40182395
 H      4   2   1     1.070008629768   160.93593853   213.27452139
 H      4   2   1     1.069996784553    63.07524131   143.53512792
 H     29   2   1     0.783506147809   144.53757488    32.14134802
 H      5   1   2     1.070008456999   143.45441156   143.94258786
 H      6   3   1     1.070002931232   144.60622174   267.56155993
 H      6   3   1     1.069998801229    88.85452190   143.28877484
 H      7   5   1     1.070001690332    89.32902228   216.43024002
 H      7   5   1     1.069995564427   144.34073002    91.60649895
 H      8   6   3     1.070002207190   145.14813577   215.49452430
 H     37   6   3     0.744581472828   143.67474248    62.06104360
 H      9   7   5     1.070002897641   145.37732646   145.27378858
 H      9   7   5     1.069998336608    89.16959390   270.84373778
 H     10   9   7     1.070002153230   145.14812964   144.76011292
 H     43   9   7     0.744581166962   143.67473634   300.54055367
 H     40   7   5     0.744581002790   145.51897275   298.58473537
 H     11   7   5     1.069998827208   145.69948100   144.51454582
 H     12   7   5     1.069995472811   109.98972404   211.05044888
 H     13   8   6     1.069995477086   109.98975805    90.79100385
 H     14   6   3     1.069995466060   109.98975813   148.94952881
 H     15   3   1     1.069995020917   100.46116410   182.87308409
 H     16   1   2     1.069995530482   106.99377718   240.87773468
 H     17   2   1     1.069995469924   109.17096223   209.14698702
 H     18   3   1     1.070001082966   109.14081205   209.46733766
 H     19   5   1     1.070001544847   109.14088142   150.53266273
 H     20   4   2     1.070001076491   109.14085338   120.92648834
 H     21   1   2     1.070001583010   106.41034517    92.35939564
 H     22   1   2     1.070001596589   106.41041644   291.94871450
 H     23   4   2     1.070001549220   109.14085331   258.30749264
 H     26  16   1     1.070008557444   109.46621821   177.47400822
 H     31   3   1     0.783365299479   143.60830342    31.99437336
 H     34   4   2     0.787701493656   142.83583398   341.07939143
 H     27  17   2     1.070004297032   109.46009773    59.54970987

---------------------------
INTERNAL COORDINATES (A.U.)
---------------------------
 C      0   0   0     0.000000000000     0.00000000     0.00000000
 C      1   0   0     4.735954515598     0.00000000     0.00000000
 C      1   2   0     4.755436737145   120.47980034     0.00000000
 C      2   1   3     8.239590353810    75.28951498   283.77948100
 C      1   2   3     4.755437031281    60.13666437   174.71907252
 C      3   1   2     4.762239832156    91.79194714   121.28833099
 C      5   1   2     4.762239800075    91.79201992   236.05607764
 C      6   3   1     4.703185112005   120.26272266   304.19020215
 C      7   5   1     4.750675025714    60.08027954   306.41229827
 C      9   7   5     4.703183194754   120.00002878   109.82545099
 C      7   5   1     4.703182106042   120.26270160    55.80983234
 C      7   5   1     2.940290470182    91.16206224   325.68709312
 C      8   6   3     2.940289240958    89.52038817    91.06561728
 C      6   3   1     2.940289259564    91.16212210    34.31292441
 C      3   1   2     5.569882928259    65.88562640    32.41919375
 C      1   2   3     2.815550985704    35.15414081   323.08151359
 C      2   1   3     2.924406052312    92.09616882   273.73521380
 C      3   1   2     2.917046449810    91.74891425    85.78589528
 C      5   1   2     2.917046409491    91.74900364   271.55851522
 C      4   2   1     2.917046316886    89.43441787    30.89183768
 C      1   2   3     2.837327056357    90.89532349   191.81515946
 C      1   2   3     2.837328063950   148.15946935   329.09681935
 C      4   2   1     2.917045031548    61.29331668   278.87882686
 C     15   3   1     2.815551037591    58.60967735    79.25168917
 C     17   2   1     2.815551110835   111.18022711   326.95804088
 C     16   1   2     2.924404652552   111.18021292   121.75553487
 C     17   2   1     2.924404657948   109.09004219    89.92306827
 N     12   7   5     2.789020607280   111.44049746    93.52608414
 H      2   1   3     2.021989420605    89.79352602   164.26253077
 H      2   1   3     2.022015079272   143.07770560    40.86734304
 H      3   1   2     2.021990919104    89.65616668   336.17389647
 H      3   1   2     2.022023797355   143.45442864   213.40182395
 H      4   2   1     2.022023271193   160.93593853   213.27452139
 H      4   2   1     2.022000886981    63.07524131   143.53512792
 H     29   2   1     1.480612043602   144.53757488    32.14134802
 H      5   1   2     2.022022944707   143.45441156   143.94258786
 H      6   3   1     2.022012502521   144.60622174   267.56155993
 H      6   3   1     2.022004697946    88.85452190   143.28877484
 H      7   5   1     2.022010157561    89.32902228   216.43024002
 H      7   5   1     2.021998581278   144.34073002    91.60649895
 H      8   6   3     2.022011134280   145.14813577   215.49452430
 H     37   6   3     1.407055068036   143.67474248    62.06104360
 H      9   7   5     2.022012439043   145.37732646   145.27378858
 H      9   7   5     2.022003819941    89.16959390   270.84373778
 H     10   9   7     2.022011032311   145.14812964   144.76011292
 H     43   9   7     1.407054490034   143.67473634   300.54055367
 H     40   7   5     1.407054179794   145.51897275   298.58473537
 H     11   7   5     2.022004747039   145.69948100   144.51454582
 H     12   7   5     2.021998408148   109.98972404   211.05044888
 H     13   8   6     2.021998416227   109.98975805    90.79100385
 H     14   6   3     2.021998395390   109.98975813   148.94952881
 H     15   3   1     2.021997554193   100.46116410   182.87308409
 H     16   1   2     2.021998517132   106.99377718   240.87773468
 H     17   2   1     2.021998402693   109.17096223   209.14698702
 H     18   3   1     2.022009009804   109.14081205   209.46733766
 H     19   5   1     2.022009882633   109.14088142   150.53266273
 H     20   4   2     2.022008997569   109.14085338   120.92648834
 H     21   1   2     2.022009954752   106.41034517    92.35939564
 H     22   1   2     2.022009980412   106.41041644   291.94871450
 H     23   4   2     2.022009890898   109.14085331   258.30749264
 H     26  16   1     2.022023134521   109.46621821   177.47400822
 H     31   3   1     1.480345878833   143.60830342    31.99437336
 H     34   4   2     1.488540098291   142.83583398   341.07939143
 H     27  17   2     2.022015083509   109.46009773    59.54970987

---------------------
BASIS SET INFORMATION
---------------------
There are 3 groups of distinct atoms

 Group   1 Type C   : 10s5p1d contracted to 6s2p1d pattern {511111/41/1}
 Group   2 Type N   : 10s5p1d contracted to 6s2p1d pattern {511111/41/1}
 Group   3 Type H   : 6s1p contracted to 4s1p pattern {3111/1}

Atom   0C    basis set group =>   1
Atom   1C    basis set group =>   1
Atom   2C    basis set group =>   1
Atom   3C    basis set group =>   1
Atom   4C    basis set group =>   1
Atom   5C    basis set group =>   1
Atom   6C    basis set group =>   1
Atom   7C    basis set group =>   1
Atom   8C    basis set group =>   1
Atom   9C    basis set group =>   1
Atom  10C    basis set group =>   1
Atom  11C    basis set group =>   1
Atom  12C    basis set group =>   1
Atom  13C    basis set group =>   1
Atom  14C    basis set group =>   1
Atom  15C    basis set group =>   1
Atom  16C    basis set group =>   1
Atom  17C    basis set group =>   1
Atom  18C    basis set group =>   1
Atom  19C    basis set group =>   1
Atom  20C    basis set group =>   1
Atom  21C    basis set group =>   1
Atom  22C    basis set group =>   1
Atom  23C    basis set group =>   1
Atom  24C    basis set group =>   1
Atom  25C    basis set group =>   1
Atom  26C    basis set group =>   1
Atom  27N    basis set group =>   2
Atom  28H    basis set group =>   3
Atom  29H    basis set group =>   3
Atom  30H    basis set group =>   3
Atom  31H    basis set group =>   3
Atom  32H    basis set group =>   3
Atom  33H    basis set group =>   3
Atom  34H    basis set group =>   3
Atom  35H    basis set group =>   3
Atom  36H    basis set group =>   3
Atom  37H    basis set group =>   3
Atom  38H    basis set group =>   3
Atom  39H    basis set group =>   3
Atom  40H    basis set group =>   3
Atom  41H    basis set group =>   3
Atom  42H    basis set group =>   3
Atom  43H    basis set group =>   3
Atom  44H    basis set group =>   3
Atom  45H    basis set group =>   3
Atom  46H    basis set group =>   3
Atom  47H    basis set group =>   3
Atom  48H    basis set group =>   3
Atom  49H    basis set group =>   3
Atom  50H    basis set group =>   3
Atom  51H    basis set group =>   3
Atom  52H    basis set group =>   3
Atom  53H    basis set group =>   3
Atom  54H    basis set group =>   3
Atom  55H    basis set group =>   3
Atom  56H    basis set group =>   3
Atom  57H    basis set group =>   3
Atom  58H    basis set group =>   3
Atom  59H    basis set group =>   3
Atom  60H    basis set group =>   3
Atom  61H    basis set group =>   3
Atom  62H    basis set group =>   3
Atom  63H    basis set group =>   3
---------------------------------
AUXILIARY/J BASIS SET INFORMATION
---------------------------------
There are 3 groups of distinct atoms

 Group   1 Type C   : 17s13p12d2f contracted to 17s13p12d2f pattern {11111111111111111/1111111111111/111111111111/11}
 Group   2 Type N   : 17s13p12d2f contracted to 17s13p12d2f pattern {11111111111111111/1111111111111/111111111111/11}
 Group   3 Type H   : 15s6p1d contracted to 15s6p1d pattern {111111111111111/111111/1}

Atom   0C    basis set group =>   1
Atom   1C    basis set group =>   1
Atom   2C    basis set group =>   1
Atom   3C    basis set group =>   1
Atom   4C    basis set group =>   1
Atom   5C    basis set group =>   1
Atom   6C    basis set group =>   1
Atom   7C    basis set group =>   1
Atom   8C    basis set group =>   1
Atom   9C    basis set group =>   1
Atom  10C    basis set group =>   1
Atom  11C    basis set group =>   1
Atom  12C    basis set group =>   1
Atom  13C    basis set group =>   1
Atom  14C    basis set group =>   1
Atom  15C    basis set group =>   1
Atom  16C    basis set group =>   1
Atom  17C    basis set group =>   1
Atom  18C    basis set group =>   1
Atom  19C    basis set group =>   1
Atom  20C    basis set group =>   1
Atom  21C    basis set group =>   1
Atom  22C    basis set group =>   1
Atom  23C    basis set group =>   1
Atom  24C    basis set group =>   1
Atom  25C    basis set group =>   1
Atom  26C    basis set group =>   1
Atom  27N    basis set group =>   2
Atom  28H    basis set group =>   3
Atom  29H    basis set group =>   3
Atom  30H    basis set group =>   3
Atom  31H    basis set group =>   3
Atom  32H    basis set group =>   3
Atom  33H    basis set group =>   3
Atom  34H    basis set group =>   3
Atom  35H    basis set group =>   3
Atom  36H    basis set group =>   3
Atom  37H    basis set group =>   3
Atom  38H    basis set group =>   3
Atom  39H    basis set group =>   3
Atom  40H    basis set group =>   3
Atom  41H    basis set group =>   3
Atom  42H    basis set group =>   3
Atom  43H    basis set group =>   3
Atom  44H    basis set group =>   3
Atom  45H    basis set group =>   3
Atom  46H    basis set group =>   3
Atom  47H    basis set group =>   3
Atom  48H    basis set group =>   3
Atom  49H    basis set group =>   3
Atom  50H    basis set group =>   3
Atom  51H    basis set group =>   3
Atom  52H    basis set group =>   3
Atom  53H    basis set group =>   3
Atom  54H    basis set group =>   3
Atom  55H    basis set group =>   3
Atom  56H    basis set group =>   3
Atom  57H    basis set group =>   3
Atom  58H    basis set group =>   3
Atom  59H    basis set group =>   3
Atom  60H    basis set group =>   3
Atom  61H    basis set group =>   3
Atom  62H    basis set group =>   3
Atom  63H    basis set group =>   3
---------------------------------
AUXILIARY/C BASIS SET INFORMATION
---------------------------------
There are 3 groups of distinct atoms

 Group   1 Type C   : 17s13p12d2f contracted to 17s13p12d2f pattern {11111111111111111/1111111111111/111111111111/11}
 Group   2 Type N   : 17s13p12d2f contracted to 17s13p12d2f pattern {11111111111111111/1111111111111/111111111111/11}
 Group   3 Type H   : 15s6p1d contracted to 15s6p1d pattern {111111111111111/111111/1}

Atom   0C    basis set group =>   1
Atom   1C    basis set group =>   1
Atom   2C    basis set group =>   1
Atom   3C    basis set group =>   1
Atom   4C    basis set group =>   1
Atom   5C    basis set group =>   1
Atom   6C    basis set group =>   1
Atom   7C    basis set group =>   1
Atom   8C    basis set group =>   1
Atom   9C    basis set group =>   1
Atom  10C    basis set group =>   1
Atom  11C    basis set group =>   1
Atom  12C    basis set group =>   1
Atom  13C    basis set group =>   1
Atom  14C    basis set group =>   1
Atom  15C    basis set group =>   1
Atom  16C    basis set group =>   1
Atom  17C    basis set group =>   1
Atom  18C    basis set group =>   1
Atom  19C    basis set group =>   1
Atom  20C    basis set group =>   1
Atom  21C    basis set group =>   1
Atom  22C    basis set group =>   1
Atom  23C    basis set group =>   1
Atom  24C    basis set group =>   1
Atom  25C    basis set group =>   1
Atom  26C    basis set group =>   1
Atom  27N    basis set group =>   2
Atom  28H    basis set group =>   3
Atom  29H    basis set group =>   3
Atom  30H    basis set group =>   3
Atom  31H    basis set group =>   3
Atom  32H    basis set group =>   3
Atom  33H    basis set group =>   3
Atom  34H    basis set group =>   3
Atom  35H    basis set group =>   3
Atom  36H    basis set group =>   3
Atom  37H    basis set group =>   3
Atom  38H    basis set group =>   3
Atom  39H    basis set group =>   3
Atom  40H    basis set group =>   3
Atom  41H    basis set group =>   3
Atom  42H    basis set group =>   3
Atom  43H    basis set group =>   3
Atom  44H    basis set group =>   3
Atom  45H    basis set group =>   3
Atom  46H    basis set group =>   3
Atom  47H    basis set group =>   3
Atom  48H    basis set group =>   3
Atom  49H    basis set group =>   3
Atom  50H    basis set group =>   3
Atom  51H    basis set group =>   3
Atom  52H    basis set group =>   3
Atom  53H    basis set group =>   3
Atom  54H    basis set group =>   3
Atom  55H    basis set group =>   3
Atom  56H    basis set group =>   3
Atom  57H    basis set group =>   3
Atom  58H    basis set group =>   3
Atom  59H    basis set group =>   3
Atom  60H    basis set group =>   3
Atom  61H    basis set group =>   3
Atom  62H    basis set group =>   3
Atom  63H    basis set group =>   3
----------------------------------
AUXILIARY/JK BASIS SET INFORMATION
----------------------------------
There are 3 groups of distinct atoms

 Group   1 Type C   : 17s13p12d2f contracted to 17s13p12d2f pattern {11111111111111111/1111111111111/111111111111/11}
 Group   2 Type N   : 17s13p12d2f contracted to 17s13p12d2f pattern {11111111111111111/1111111111111/111111111111/11}
 Group   3 Type H   : 15s6p1d contracted to 15s6p1d pattern {111111111111111/111111/1}

Atom   0C    basis set group =>   1
Atom   1C    basis set group =>   1
Atom   2C    basis set group =>   1
Atom   3C    basis set group =>   1
Atom   4C    basis set group =>   1
Atom   5C    basis set group =>   1
Atom   6C    basis set group =>   1
Atom   7C    basis set group =>   1
Atom   8C    basis set group =>   1
Atom   9C    basis set group =>   1
Atom  10C    basis set group =>   1
Atom  11C    basis set group =>   1
Atom  12C    basis set group =>   1
Atom  13C    basis set group =>   1
Atom  14C    basis set group =>   1
Atom  15C    basis set group =>   1
Atom  16C    basis set group =>   1
Atom  17C    basis set group =>   1
Atom  18C    basis set group =>   1
Atom  19C    basis set group =>   1
Atom  20C    basis set group =>   1
Atom  21C    basis set group =>   1
Atom  22C    basis set group =>   1
Atom  23C    basis set group =>   1
Atom  24C    basis set group =>   1
Atom  25C    basis set group =>   1
Atom  26C    basis set group =>   1
Atom  27N    basis set group =>   2
Atom  28H    basis set group =>   3
Atom  29H    basis set group =>   3
Atom  30H    basis set group =>   3
Atom  31H    basis set group =>   3
Atom  32H    basis set group =>   3
Atom  33H    basis set group =>   3
Atom  34H    basis set group =>   3
Atom  35H    basis set group =>   3
Atom  36H    basis set group =>   3
Atom  37H    basis set group =>   3
Atom  38H    basis set group =>   3
Atom  39H    basis set group =>   3
Atom  40H    basis set group =>   3
Atom  41H    basis set group =>   3
Atom  42H    basis set group =>   3
Atom  43H    basis set group =>   3
Atom  44H    basis set group =>   3
Atom  45H    basis set group =>   3
Atom  46H    basis set group =>   3
Atom  47H    basis set group =>   3
Atom  48H    basis set group =>   3
Atom  49H    basis set group =>   3
Atom  50H    basis set group =>   3
Atom  51H    basis set group =>   3
Atom  52H    basis set group =>   3
Atom  53H    basis set group =>   3
Atom  54H    basis set group =>   3
Atom  55H    basis set group =>   3
Atom  56H    basis set group =>   3
Atom  57H    basis set group =>   3
Atom  58H    basis set group =>   3
Atom  59H    basis set group =>   3
Atom  60H    basis set group =>   3
Atom  61H    basis set group =>   3
Atom  62H    basis set group =>   3
Atom  63H    basis set group =>   3


           ************************************************************
           *        Program running with 72 parallel MPI-processes    *
           *              working on a shared directory               *
           ************************************************************
------------------------------------------------------------------------------
                           ORCA GTO INTEGRAL CALCULATION
                           -- RI-GTO INTEGRALS CHOSEN --
------------------------------------------------------------------------------

                         BASIS SET STATISTICS AND STARTUP INFO

Gaussian basis set:
 # of primitive gaussian shells          ...  700
 # of primitive gaussian functions       ... 1164
 # of contracted shells                  ...  432
 # of contracted basis functions         ...  728
 Highest angular momentum                ...    2
 Maximum contraction depth               ...    5
Auxiliary gaussian basis set:
 # of primitive gaussian shells          ... 2024
 # of primitive gaussian functions       ... 5008
 # of contracted shells                  ... 2024
 # of contracted aux-basis functions     ... 5008
 Highest angular momentum                ...    3
 Maximum contraction depth               ...    1
Ratio of auxiliary to basis functions    ...  6.88
Integral package used                  ... LIBINT
 One Electron integrals                  ... done
 Ordering auxiliary basis shells         ... done
 Integral threshhold             Thresh  ...  1.000e-10
 Primitive cut-off               TCut    ...  1.000e-11
 Pre-screening matrix                    ... done
 Shell pair data                         ... 
 Ordering of the shell pairs             ... done (   0.016 sec) 66490 of 93528 pairs
 Determination of significant pairs      ... done (   0.000 sec)
 Creation of shell pair data             ... done (   0.010 sec)
 Storage of shell pair data              ... done (   0.043 sec)
 Shell pair data done in (   0.070 sec)
 Computing two index integrals           ... done
 Cholesky decomposition of the V-matrix  ... done


Timings:
 Total evaluation time                   ...   4.332 sec (  0.072 min)
 One electron matrix time                ...   0.689 sec (  0.011 min) = 15.9%
 Schwartz matrix evaluation time         ...   0.386 sec (  0.006 min) =  8.9%
 Two index repulsion integral time       ...   0.936 sec (  0.016 min) = 21.6%
 Cholesky decomposition of V             ...   2.220 sec (  0.037 min) = 51.3%
 Three index repulsion integral time     ...   0.001 sec (  0.000 min) =  0.0%



           ************************************************************
           *        Program running with 72 parallel MPI-processes    *
           *              working on a shared directory               *
           ************************************************************
-------------------------------------------------------------------------------
                                 ORCA SCF
-------------------------------------------------------------------------------

------------
SCF SETTINGS
------------
Hamiltonian:
 Density Functional     Method          .... DFT(GTOs)
 Exchange Functional    Exchange        .... PBE
   PBE kappa parameter   XKappa         ....  0.804000
   PBE mue parameter    XMuePBE         ....  0.219520
 Correlation Functional Correlation     .... PBE
   PBE beta parameter  CBetaPBE         ....  0.066725
 LDA part of GGA corr.  LDAOpt          .... PW91-LDA
 Gradients option       PostSCFGGA      .... off
   Density functional embedding theory  .... OFF
   NL short-range parameter             ....  6.400000
 RI-approximation to the Coulomb term is turned on
   Number of auxiliary basis functions  .... 5008
   RIJ-COSX (HFX calculated with COS-X)).... on


General Settings:
 Integral files         IntName         .... zfs
 Hartree-Fock type      HFTyp           .... UHF
 Total Charge           Charge          ....   -1
 Multiplicity           Mult            ....    3
 Number of Electrons    NEL             ....  206
 Basis Dimension        Dim             ....  728
 Nuclear Repulsion      ENuc            ....   3308.0184381119 Eh

Convergence Acceleration:
 DIIS                   CNVDIIS         .... on
   Start iteration      DIISMaxIt       ....    12
   Startup error        DIISStart       ....  0.200000
   # of expansion vecs  DIISMaxEq       ....     5
   Bias factor          DIISBfac        ....   1.050
   Max. coefficient     DIISMaxC        ....  10.000
 Newton-Raphson         CNVNR           .... off
 SOSCF                  CNVSOSCF        .... off
 Level Shifting         CNVShift        .... on
   Level shift para.    LevelShift      ....    0.2500
   Turn off err/grad.   ShiftErr        ....    0.0010
 Zerner damping         CNVZerner       .... off
 Static damping         CNVDamp         .... on
   Fraction old density DampFac         ....    0.7000
   Max. Damping (<1)    DampMax         ....    0.9800
   Min. Damping (>=0)   DampMin         ....    0.0000
   Turn off err/grad.   DampErr         ....    0.1000
 Fernandez-Rico         CNVRico         .... off

SCF Procedure:
 Maximum # iterations   MaxIter         ....   125
 SCF integral mode      SCFMode         .... Direct
   Integral package                     .... LIBINT
 Reset frequency        DirectResetFreq ....    20
 Integral Threshold     Thresh          ....  1.000e-10 Eh
 Primitive CutOff       TCut            ....  1.000e-11 Eh

Convergence Tolerance:
 Convergence Check Mode ConvCheckMode   .... Total+1el-Energy
 Convergence forced     ConvForced      .... 0
 Energy Change          TolE            ....  1.000e-06 Eh
 1-El. energy change                    ....  1.000e-03 Eh
 DIIS Error             TolErr          ....  1.000e-06


Diagonalization of the overlap matrix:
Smallest eigenvalue                        ... 1.744e-04
Time for diagonalization                   ...    0.146 sec
Threshold for overlap eigenvalues          ... 1.000e-08
Number of eigenvalues below threshold      ... 0
Time for construction of square roots      ...    0.248 sec
Total time needed                          ...    0.397 sec

-------------------
DFT GRID GENERATION
-------------------

General Integration Accuracy     IntAcc      ...  4.340
Radial Grid Type                 RadialGrid  ... Gauss-Chebyshev
Angular Grid (max. acc.)         AngularGrid ... Lebedev-110
Angular grid pruning method      GridPruning ... 3 (G Style)
Weight generation scheme         WeightScheme... Becke
Basis function cutoff            BFCut       ...    1.0000e-10
Integration weight cutoff        WCut        ...    1.0000e-14
Grids for H and He will be reduced by one unit

# of grid points (after initial pruning)     ...  74998 (   0.0 sec)
# of grid points (after weights+screening)   ...  62553 (   0.1 sec)
nearest neighbour list constructed           ...    0.0 sec
Grid point re-assignment to atoms done       ...    0.0 sec
Grid point division into batches done        ...    0.1 sec
Reduced shell lists constructed in    0.1 sec

Total number of grid points                  ...    62553
Total number of batches                      ...     1006
Average number of points per batch           ...       62
Average number of grid points per atom       ...      977
Average number of shells per batch           ...   225.20 (52.13%)
Average number of basis functions per batch  ...   451.33 (62.00%)
Average number of large shells per batch     ...   168.00 (74.60%)
Average number of large basis fcns per batch ...   333.47 (73.88%)
Maximum spatial batch extension              ...   2.26,  2.26,  2.48 au
Average spatial batch extension              ...   0.03,  0.02,  0.02 au

Time for grid setup =    0.366 sec

------------------------------
INITIAL GUESS: MODEL POTENTIAL
------------------------------
Loading Hartree-Fock densities                     ... done
Calculating cut-offs                               ... done
Setting up the integral package                    ... done
Initializing the effective Hamiltonian             ... done
Starting the Coulomb interaction                   ... done (   0.2 sec)
Reading the grid                                   ... done
Mapping shells                                     ... done
Starting the XC term evaluation                    ... done (   0.1 sec)
  promolecular density results
     # of electrons  =    204.966959944
     EX              =   -156.125504862
     EC              =     -7.166519589
     EX+EC           =   -163.292024452
Transforming the Hamiltonian                       ... done (   0.1 sec)
Diagonalizing the Hamiltonian                      ... done (   0.1 sec)
Back transforming the eigenvectors                 ... done (   0.1 sec)
Now organizing SCF variables                       ... done
                      ------------------
                      INITIAL GUESS DONE (   1.2 sec)
                      ------------------
--------------------
COSX GRID GENERATION
--------------------

General Integration Accuracy     IntAcc      ...  3.340
Radial Grid Type                 RadialGrid  ... Gauss-Chebyshev
Angular Grid (max. acc.)         AngularGrid ... Lebedev-50
Angular grid pruning method      GridPruning ... 3 (G Style)
Weight generation scheme         WeightScheme... Becke
Basis function cutoff            BFCut       ...    1.0000e-10
Integration weight cutoff        WCut        ...    1.0000e-14
Grids for H and He will be reduced by one unit

# of grid points (after initial pruning)     ...  27746 (   0.0 sec)
# of grid points (after weights+screening)   ...  23458 (   0.0 sec)
nearest neighbour list constructed           ...    0.0 sec
Grid point re-assignment to atoms done       ...    0.0 sec
Grid point division into batches done        ...    0.0 sec
Reduced shell lists constructed in    0.0 sec

Total number of grid points                  ...    23458
Total number of batches                      ...      394
Average number of points per batch           ...       59
Average number of grid points per atom       ...      367
Average number of shells per batch           ...   222.57 (51.52%)
Average number of basis functions per batch  ...   444.86 (61.11%)
Average number of large shells per batch     ...   165.86 (74.52%)
Average number of large basis fcns per batch ...   332.71 (74.79%)
Maximum spatial batch extension              ...   3.50,  2.93,  3.04 au
Average spatial batch extension              ...   0.04,  0.04,  0.04 au

Overlap Fitting                  UseSFitting ... on
Constructing numerical overlap ... done (      0.0 sec)
Inverting numerical overlap    ... done (      0.0 sec)
Obtaining analytic overlap     ... done (      0.0 sec)
Final contraction and storage  ... done (      0.1 sec)


General Integration Accuracy     IntAcc      ...  3.670
Radial Grid Type                 RadialGrid  ... Gauss-Chebyshev
Angular Grid (max. acc.)         AngularGrid ... Lebedev-50
Angular grid pruning method      GridPruning ... 3 (G Style)
Weight generation scheme         WeightScheme... Becke
Basis function cutoff            BFCut       ...    1.0000e-10
Integration weight cutoff        WCut        ...    1.0000e-14
Grids for H and He will be reduced by one unit

# of grid points (after initial pruning)     ...  35464 (   0.0 sec)
# of grid points (after weights+screening)   ...  29905 (   0.0 sec)
nearest neighbour list constructed           ...    0.0 sec
Grid point re-assignment to atoms done       ...    0.0 sec
Grid point division into batches done        ...    0.0 sec
Reduced shell lists constructed in    0.0 sec

Total number of grid points                  ...    29905
Total number of batches                      ...      501
Average number of points per batch           ...       59
Average number of grid points per atom       ...      467
Average number of shells per batch           ...   223.62 (51.77%)
Average number of basis functions per batch  ...   447.12 (61.42%)
Average number of large shells per batch     ...   169.75 (75.91%)
Average number of large basis fcns per batch ...   339.75 (75.99%)
Maximum spatial batch extension              ...   2.69,  3.20,  2.79 au
Average spatial batch extension              ...   0.03,  0.04,  0.03 au

Overlap Fitting                  UseSFitting ... on
Constructing numerical overlap ... done (      0.0 sec)
Inverting numerical overlap    ... done (      0.0 sec)
Obtaining analytic overlap     ... done (      0.0 sec)
Final contraction and storage  ... done (      0.1 sec)


General Integration Accuracy     IntAcc      ...  4.010
Radial Grid Type                 RadialGrid  ... Gauss-Chebyshev
Angular Grid (max. acc.)         AngularGrid ... Lebedev-110
Angular grid pruning method      GridPruning ... 3 (G Style)
Weight generation scheme         WeightScheme... Becke
Basis function cutoff            BFCut       ...    1.0000e-10
Integration weight cutoff        WCut        ...    1.0000e-14
Grids for H and He will be reduced by one unit

# of grid points (after initial pruning)     ...  65152 (   0.0 sec)
# of grid points (after weights+screening)   ...  54625 (   0.1 sec)
nearest neighbour list constructed           ...    0.0 sec
Grid point re-assignment to atoms done       ...    0.0 sec
Grid point division into batches done        ...    0.0 sec
Reduced shell lists constructed in    0.1 sec

Total number of grid points                  ...    54625
Total number of batches                      ...      884
Average number of points per batch           ...       61
Average number of grid points per atom       ...      854
Average number of shells per batch           ...   223.93 (51.84%)
Average number of basis functions per batch  ...   448.21 (61.57%)
Average number of large shells per batch     ...   167.50 (74.80%)
Average number of large basis fcns per batch ...   332.50 (74.18%)
Maximum spatial batch extension              ...   2.21,  2.28,  2.28 au
Average spatial batch extension              ...   0.03,  0.03,  0.03 au

Overlap Fitting                  UseSFitting ... on
Constructing numerical overlap ... done (      0.1 sec)
Inverting numerical overlap    ... done (      0.0 sec)
Obtaining analytic overlap     ... done (      0.0 sec)
Final contraction and storage  ... done (      0.1 sec)

Time for X-Grid setup             =    1.386 sec
--------------
SCF ITERATIONS
--------------
ITER       Energy         Delta-E        Max-DP      RMS-DP      [F,P]     Damp
               ***  Starting incremental Fock matrix formation  ***
  0  -1102.3545763249   0.000000000000 7.75204326  0.02042616  0.1512668 0.7000
  1  -1102.7798664210  -0.425290096096 4.80390983  0.01272490  0.0656963 0.7000
                               ***Turning on DIIS***
  2  -1102.8699394880  -0.090073066997 0.69098592  0.00357163  0.0352303 0.0000
  3  -1103.1234013414  -0.253461853352 4.44212755  0.01132527  0.0323603 0.0000
  4  -1103.1566383190  -0.033236977614 1.43266524  0.00365110  0.0198660 0.0000
  5  -1103.1659933964  -0.009355077404 0.63515556  0.00160524  0.0058049 0.0000
  6  -1103.1673356179  -0.001342221517 0.42489523  0.00108148  0.0014164 0.0000
  7  -1103.1675425580  -0.000206940089 0.25488087  0.00064069  0.0024101 0.0000
  8  -1103.1676476877  -0.000105129734 0.52499659  0.00131984  0.0005486 0.0000
  9  -1103.1677146887  -0.000067000997 0.09545083  0.00029016  0.0008120 0.0000
 10  -1103.1677211360  -0.000006447244 0.08447760  0.00022580  0.0005322 0.0000
 11  -1103.1677259074  -0.000004771428 0.02602848  0.00006674  0.0003683 0.0000
 12  -1103.1677279475  -0.000002040081 0.00873005  0.00001665  0.0000659 0.0000
 13  -1103.1677277645   0.000000182930 0.00537293  0.00001084  0.0000786 0.0000
                 **** Energy Check signals convergence ****

               *****************************************************
               *                     SUCCESS                       *
               *           SCF CONVERGED AFTER  14 CYCLES          *
               *****************************************************

Setting up the final grid:

General Integration Accuracy     IntAcc      ...  4.670
Radial Grid Type                 RadialGrid  ... Gauss-Chebyshev
Angular Grid (max. acc.)         AngularGrid ... Lebedev-302
Angular grid pruning method      GridPruning ... 3 (G Style)
Weight generation scheme         WeightScheme... Becke
Basis function cutoff            BFCut       ...    1.0000e-10
Integration weight cutoff        WCut        ...    1.0000e-14
Grids for H and He will be reduced by one unit

# of grid points (after initial pruning)     ... 296120 (   0.0 sec)
# of grid points (after weights+screening)   ... 239117 (   0.2 sec)
nearest neighbour list constructed           ...    0.0 sec
Grid point re-assignment to atoms done       ...    0.1 sec
Grid point division into batches done        ...    0.8 sec
Reduced shell lists constructed in    0.9 sec

Total number of grid points                  ...   239117
Total number of batches                      ...     3770
Average number of points per batch           ...       63
Average number of grid points per atom       ...     3736
Average number of shells per batch           ...   226.74 (52.49%)
Average number of basis functions per batch  ...   456.19 (62.66%)
Average number of large shells per batch     ...   168.15 (74.16%)
Average number of large basis fcns per batch ...   332.04 (72.79%)
Maximum spatial batch extension              ...   1.63,  1.77,  1.83 au
Average spatial batch extension              ...   0.02,  0.02,  0.02 au

Final grid set up in    1.2 sec
Final integration                            ... done (   0.9 sec)
Change in XC energy                          ...    -0.000312234
Integrated number of electrons               ...   206.000966233
Previous integrated no of electrons          ...   205.997287187

----------------
TOTAL SCF ENERGY
----------------

Total Energy       :        -1103.16804017 Eh          -30018.72850 eV

Components:
Nuclear Repulsion  :         3308.01843811 Eh           90015.75801 eV
Electronic Energy  :        -4411.18647829 Eh         -120034.48651 eV
One Electron Energy:        -8103.22231591 Eh         -220499.88921 eV
Two Electron Energy:         3692.03583762 Eh          100465.40270 eV

Virial components:
Potential Energy   :        -2203.46185930 Eh          -59959.24546 eV
Kinetic Energy     :         1100.29381913 Eh           29940.51696 eV
Virial Ratio       :            2.00261223


DFT components:
N(Alpha)           :      104.000566520515 electrons
N(Beta)            :      102.000399712368 electrons
N(Total)           :      206.000966232883 electrons
E(X)               :     -159.757773852449 Eh       
E(C)               :       -7.076866381629 Eh       
E(XC)              :     -166.834640234078 Eh       
DFET-embed. en.    :        0.000000000000 Eh       

---------------
SCF CONVERGENCE
---------------

  Last Energy change         ...   -1.7592e-07  Tolerance :   1.0000e-06
  Last MAX-Density change    ...    9.7297e-04  Tolerance :   1.0000e-05
  Last RMS-Density change    ...    2.1891e-06  Tolerance :   1.0000e-06
  Last DIIS Error            ...    2.9689e-05  Tolerance :   1.0000e-06

             **** THE GBW FILE WAS UPDATED (zfs.gbw) ****
             **** DENSITY FILE WAS UPDATED (zfs.scfp) ****
             **** ENERGY FILE WAS UPDATED (zfs.en.tmp) ****
----------------------
UHF SPIN CONTAMINATION
----------------------

Warning: in a DFT calculation there is little theoretical justification to 
         calculate <S**2> as in Hartree-Fock theory. We will do it anyways
         but you should keep in mind that the values have only limited relevance

Expectation value of <S**2>     :     2.011144
Ideal value S*(S+1) for S=1.0   :     2.000000
Deviation                       :     0.011144

             **** THE GBW FILE WAS UPDATED (zfs.gbw) ****
             **** DENSITY FILE WAS UPDATED (zfs.scfp) ****
----------------
ORBITAL ENERGIES
----------------
                 SPIN UP ORBITALS
  NO   OCC          E(Eh)            E(eV) 
   0   1.0000     -13.855758      -377.0343 
   1   1.0000      -9.801481      -266.7118 
   2   1.0000      -9.801126      -266.7022 
   3   1.0000      -9.801081      -266.7010 
   4   1.0000      -9.762821      -265.6599 
   5   1.0000      -9.762772      -265.6585 
   6   1.0000      -9.762763      -265.6583 
   7   1.0000      -9.762630      -265.6547 
   8   1.0000      -9.762558      -265.6527 
   9   1.0000      -9.762502      -265.6512 
  10   1.0000      -9.755611      -265.4637 
  11   1.0000      -9.755530      -265.4615 
  12   1.0000      -9.755445      -265.4591 
  13   1.0000      -9.749281      -265.2914 
  14   1.0000      -9.749076      -265.2858 
  15   1.0000      -9.748603      -265.2730 
  16   1.0000      -9.748511      -265.2705 
  17   1.0000      -9.748461      -265.2691 
  18   1.0000      -9.748053      -265.2580 
  19   1.0000      -9.739691      -265.0305 
  20   1.0000      -9.739582      -265.0275 
  21   1.0000      -9.739404      -265.0227 
  22   1.0000      -9.735635      -264.9201 
  23   1.0000      -9.735526      -264.9171 
  24   1.0000      -9.735243      -264.9094 
  25   1.0000      -9.734669      -264.8938 
  26   1.0000      -9.734238      -264.8821 
  27   1.0000      -9.734134      -264.8793 
  28   1.0000      -0.729713       -19.8565 
  29   1.0000      -0.667405       -18.1610 
  30   1.0000      -0.652347       -17.7513 
  31   1.0000      -0.652246       -17.7485 
  32   1.0000      -0.609354       -16.5814 
  33   1.0000      -0.598266       -16.2796 
  34   1.0000      -0.597961       -16.2713 
  35   1.0000      -0.582454       -15.8494 
  36   1.0000      -0.582301       -15.8452 
  37   1.0000      -0.545780       -14.8514 
  38   1.0000      -0.521586       -14.1931 
  39   1.0000      -0.521503       -14.1908 
  40   1.0000      -0.518952       -14.1214 
  41   1.0000      -0.515950       -14.0397 
  42   1.0000      -0.515706       -14.0331 
  43   1.0000      -0.501957       -13.6589 
  44   1.0000      -0.444694       -12.1007 
  45   1.0000      -0.444601       -12.0982 
  46   1.0000      -0.423895       -11.5348 
  47   1.0000      -0.405317       -11.0292 
  48   1.0000      -0.405258       -11.0276 
  49   1.0000      -0.400250       -10.8913 
  50   1.0000      -0.397478       -10.8159 
  51   1.0000      -0.384009       -10.4494 
  52   1.0000      -0.383983       -10.4487 
  53   1.0000      -0.358464        -9.7543 
  54   1.0000      -0.357896        -9.7389 
  55   1.0000      -0.357888        -9.7386 
  56   1.0000      -0.346437        -9.4270 
  57   1.0000      -0.312925        -8.5151 
  58   1.0000      -0.309003        -8.4084 
  59   1.0000      -0.308866        -8.4047 
  60   1.0000      -0.301336        -8.1998 
  61   1.0000      -0.301206        -8.1962 
  62   1.0000      -0.282112        -7.6766 
  63   1.0000      -0.279306        -7.6003 
  64   1.0000      -0.279160        -7.5963 
  65   1.0000      -0.275613        -7.4998 
  66   1.0000      -0.275579        -7.4989 
  67   1.0000      -0.242658        -6.6031 
  68   1.0000      -0.242558        -6.6003 
  69   1.0000      -0.238276        -6.4838 
  70   1.0000      -0.231009        -6.2861 
  71   1.0000      -0.228433        -6.2160 
  72   1.0000      -0.226252        -6.1566 
  73   1.0000      -0.226235        -6.1562 
  74   1.0000      -0.212451        -5.7811 
  75   1.0000      -0.212365        -5.7788 
  76   1.0000      -0.210095        -5.7170 
  77   1.0000      -0.197015        -5.3611 
  78   1.0000      -0.190611        -5.1868 
  79   1.0000      -0.190588        -5.1862 
  80   1.0000      -0.179321        -4.8796 
  81   1.0000      -0.179299        -4.8790 
  82   1.0000      -0.171371        -4.6633 
  83   1.0000      -0.166753        -4.5376 
  84   1.0000      -0.166725        -4.5368 
  85   1.0000      -0.161161        -4.3854 
  86   1.0000      -0.158650        -4.3171 
  87   1.0000      -0.156241        -4.2515 
  88   1.0000      -0.156182        -4.2499 
  89   1.0000      -0.146958        -3.9989 
  90   1.0000      -0.146845        -3.9959 
  91   1.0000      -0.135096        -3.6761 
  92   1.0000      -0.119912        -3.2630 
  93   1.0000      -0.119871        -3.2619 
  94   1.0000      -0.095623        -2.6020 
  95   1.0000      -0.095565        -2.6005 
  96   1.0000      -0.092614        -2.5202 
  97   1.0000      -0.077024        -2.0959 
  98   1.0000      -0.059122        -1.6088 
  99   1.0000      -0.056813        -1.5460 
 100   1.0000      -0.056557        -1.5390 
 101   1.0000       0.002084         0.0567 
 102   1.0000       0.047438         1.2909 
 103   1.0000       0.047517         1.2930 
 104   0.0000       0.096962         2.6385 
 105   0.0000       0.113757         3.0955 
 106   0.0000       0.116243         3.1631 
 107   0.0000       0.117321         3.1925 
 108   0.0000       0.124682         3.3928 
 109   0.0000       0.125151         3.4055 
 110   0.0000       0.126551         3.4436 
 111   0.0000       0.130544         3.5523 
 112   0.0000       0.131508         3.5785 
 113   0.0000       0.140637         3.8269 
 114   0.0000       0.143177         3.8960 
 115   0.0000       0.143691         3.9100 
 116   0.0000       0.150414         4.0930 
 117   0.0000       0.151688         4.1276 
 118   0.0000       0.152799         4.1579 
 119   0.0000       0.155470         4.2305 
 120   0.0000       0.179215         4.8767 
 121   0.0000       0.180132         4.9016 
 122   0.0000       0.183956         5.0057 
 123   0.0000       0.184750         5.0273 
 124   0.0000       0.185077         5.0362 
 125   0.0000       0.185710         5.0534 
 126   0.0000       0.193479         5.2648 
 127   0.0000       0.194045         5.2802 
 128   0.0000       0.195931         5.3316 
 129   0.0000       0.228191         6.2094 
 130   0.0000       0.228292         6.2121 
 131   0.0000       0.230101         6.2614 
 132   0.0000       0.239458         6.5160 
 133   0.0000       0.246494         6.7075 
 134   0.0000       0.250064         6.8046 
 135   0.0000       0.250246         6.8095 
 136   0.0000       0.252135         6.8609 
 137   0.0000       0.252337         6.8664 
 138   0.0000       0.275085         7.4854 
 139   0.0000       0.276687         7.5290 
 140   0.0000       0.277371         7.5476 
 141   0.0000       0.283429         7.7125 
 142   0.0000       0.284254         7.7349 
 143   0.0000       0.292099         7.9484 
 144   0.0000       0.292882         7.9697 
 145   0.0000       0.293204         7.9785 
 146   0.0000       0.296448         8.0668 
 147   0.0000       0.297107         8.0847 
 148   0.0000       0.298133         8.1126 
 149   0.0000       0.299381         8.1466 
 150   0.0000       0.308406         8.3922 
 151   0.0000       0.308655         8.3989 
 152   0.0000       0.310735         8.4555 
 153   0.0000       0.312107         8.4929 
 154   0.0000       0.314221         8.5504 
 155   0.0000       0.327627         8.9152 
 156   0.0000       0.331960         9.0331 
 157   0.0000       0.332228         9.0404 
 158   0.0000       0.340923         9.2770 
 159   0.0000       0.343719         9.3531 
 160   0.0000       0.344099         9.3634 
 161   0.0000       0.354903         9.6574 
 162   0.0000       0.355697         9.6790 
 163   0.0000       0.356985         9.7140 
 164   0.0000       0.366289         9.9672 
 165   0.0000       0.372549        10.1376 
 166   0.0000       0.373049        10.1512 
 167   0.0000       0.374074        10.1791 
 168   0.0000       0.382007        10.3949 
 169   0.0000       0.382244        10.4014 
 170   0.0000       0.382813        10.4169 
 171   0.0000       0.389028        10.5860 
 172   0.0000       0.389701        10.6043 
 173   0.0000       0.390213        10.6182 
 174   0.0000       0.393207        10.6997 
 175   0.0000       0.393389        10.7047 
 176   0.0000       0.394329        10.7302 
 177   0.0000       0.397656        10.8208 
 178   0.0000       0.397886        10.8270 
 179   0.0000       0.411035        11.1848 
 180   0.0000       0.411559        11.1991 
 181   0.0000       0.413581        11.2541 
 182   0.0000       0.427406        11.6303 
 183   0.0000       0.428277        11.6540 
 184   0.0000       0.428375        11.6567 
 185   0.0000       0.428949        11.6723 
 186   0.0000       0.429213        11.6795 
 187   0.0000       0.431671        11.7464 
 188   0.0000       0.433231        11.7888 
 189   0.0000       0.433532        11.7970 
 190   0.0000       0.437034        11.8923 
 191   0.0000       0.437993        11.9184 
 192   0.0000       0.438619        11.9354 
 193   0.0000       0.451119        12.2756 
 194   0.0000       0.460790        12.5387 
 195   0.0000       0.461148        12.5485 
 196   0.0000       0.467304        12.7160 
 197   0.0000       0.470768        12.8102 
 198   0.0000       0.472274        12.8512 
 199   0.0000       0.473109        12.8739 
 200   0.0000       0.482223        13.1220 
 201   0.0000       0.483187        13.1482 
 202   0.0000       0.498744        13.5715 
 203   0.0000       0.507822        13.8185 
 204   0.0000       0.509679        13.8691 
 205   0.0000       0.510759        13.8985 
 206   0.0000       0.515264        14.0211 
 207   0.0000       0.516928        14.0663 
 208   0.0000       0.527369        14.3504 
 209   0.0000       0.534326        14.5397 
 210   0.0000       0.536116        14.5885 
 211   0.0000       0.537820        14.6348 
 212   0.0000       0.541945        14.7471 
 213   0.0000       0.546730        14.8773 
 214   0.0000       0.548426        14.9234 
 215   0.0000       0.551172        14.9981 
 216   0.0000       0.557974        15.1833 
 217   0.0000       0.558799        15.2057 
 218   0.0000       0.559092        15.2137 
 219   0.0000       0.575214        15.6524 
 220   0.0000       0.579341        15.7647 
 221   0.0000       0.581364        15.8197 
 222   0.0000       0.590068        16.0566 
 223   0.0000       0.591087        16.0843 
 224   0.0000       0.600575        16.3425 
 225   0.0000       0.603072        16.4104 
 226   0.0000       0.605052        16.4643 
 227   0.0000       0.608004        16.5446 
 228   0.0000       0.615827        16.7575 
 229   0.0000       0.618750        16.8371 
 230   0.0000       0.619310        16.8523 
 231   0.0000       0.619994        16.8709 
 232   0.0000       0.621875        16.9221 
 233   0.0000       0.623647        16.9703 
 234   0.0000       0.624696        16.9989 
 235   0.0000       0.625204        17.0127 
 236   0.0000       0.634226        17.2582 
 237   0.0000       0.644879        17.5480 
 238   0.0000       0.645047        17.5526 
 239   0.0000       0.646850        17.6017 
 240   0.0000       0.657675        17.8962 
 241   0.0000       0.658052        17.9065 
 242   0.0000       0.664373        18.0785 
 243   0.0000       0.679006        18.4767 
 244   0.0000       0.697086        18.9687 
 245   0.0000       0.698859        19.0169 
 246   0.0000       0.702646        19.1200 
 247   0.0000       0.703509        19.1435 
 248   0.0000       0.708388        19.2762 
 249   0.0000       0.713890        19.4259 
 250   0.0000       0.713955        19.4277 
 251   0.0000       0.714685        19.4476 
 252   0.0000       0.730311        19.8728 
 253   0.0000       0.736003        20.0277 
 254   0.0000       0.737579        20.0705 
 255   0.0000       0.737793        20.0764 
 256   0.0000       0.743616        20.2348 
 257   0.0000       0.746600        20.3160 
 258   0.0000       0.758765        20.6470 
 259   0.0000       0.759165        20.6579 
 260   0.0000       0.761152        20.7120 
 261   0.0000       0.761304        20.7161 
 262   0.0000       0.762075        20.7371 
 263   0.0000       0.779562        21.2129 
 264   0.0000       0.812131        22.0992 
 265   0.0000       0.828450        22.5433 
 266   0.0000       0.852818        23.2064 
 267   0.0000       0.853101        23.2141 
 268   0.0000       0.857067        23.3220 
 269   0.0000       0.857618        23.3370 
 270   0.0000       0.896223        24.3875 
 271   0.0000       0.898884        24.4599 
 272   0.0000       0.906612        24.6702 
 273   0.0000       0.907592        24.6968 
 274   0.0000       0.916326        24.9345 
 275   0.0000       0.923013        25.1164 
 276   0.0000       0.924455        25.1557 
 277   0.0000       0.942572        25.6487 
 278   0.0000       0.950621        25.8677 
 279   0.0000       0.952021        25.9058 
 280   0.0000       0.956383        26.0245 
 281   0.0000       0.957226        26.0474 
 282   0.0000       0.959227        26.1019 
 283   0.0000       0.961652        26.1679 
 284   0.0000       0.964403        26.2427 
 285   0.0000       0.965707        26.2782 
 286   0.0000       0.984522        26.7902 
 287   0.0000       1.007623        27.4188 
 288   0.0000       1.010692        27.5023 
 289   0.0000       1.011584        27.5266 
 290   0.0000       1.016139        27.6505 
 291   0.0000       1.017361        27.6838 
 292   0.0000       1.018145        27.7051 
 293   0.0000       1.030246        28.0344 
 294   0.0000       1.030455        28.0401 
 295   0.0000       1.039538        28.2873 
 296   0.0000       1.040670        28.3181 
 297   0.0000       1.041641        28.3445 
 298   0.0000       1.046394        28.4738 
 299   0.0000       1.046874        28.4869 
 300   0.0000       1.054614        28.6975 
 301   0.0000       1.060449        28.8563 
 302   0.0000       1.060642        28.8615 
 303   0.0000       1.061489        28.8846 
 304   0.0000       1.067017        29.0350 
 305   0.0000       1.067525        29.0488 
 306   0.0000       1.070483        29.1293 
 307   0.0000       1.088485        29.6192 
 308   0.0000       1.094889        29.7934 
 309   0.0000       1.097221        29.8569 
 310   0.0000       1.125069        30.6147 
 311   0.0000       1.131297        30.7842 
 312   0.0000       1.131461        30.7886 
 313   0.0000       1.132513        30.8172 
 314   0.0000       1.135520        30.8991 
 315   0.0000       1.135982        30.9116 
 316   0.0000       1.140441        31.0330 
 317   0.0000       1.141182        31.0531 
 318   0.0000       1.141724        31.0679 
 319   0.0000       1.146307        31.1926 
 320   0.0000       1.147897        31.2359 
 321   0.0000       1.148886        31.2628 
 322   0.0000       1.149348        31.2754 
 323   0.0000       1.152984        31.3743 
 324   0.0000       1.153761        31.3954 
 325   0.0000       1.155024        31.4298 
 326   0.0000       1.155342        31.4385 
 327   0.0000       1.160868        31.5888 
 328   0.0000       1.160995        31.5923 
 329   0.0000       1.170284        31.8450 
 330   0.0000       1.204072        32.7645 
 331   0.0000       1.205208        32.7954 
 332   0.0000       1.205437        32.8016 
 333   0.0000       1.206516        32.8310 
 334   0.0000       1.208860        32.8948 
 335   0.0000       1.209528        32.9129 
 336   0.0000       1.214410        33.0458 
 337   0.0000       1.214875        33.0584 
 338   0.0000       1.215169        33.0664 
 339   0.0000       1.216302        33.0973 
 340   0.0000       1.233565        33.5670 
 341   0.0000       1.233780        33.5729 
 342   0.0000       1.249426        33.9986 
 343   0.0000       1.270613        34.5751 
 344   0.0000       1.279454        34.8157 
 345   0.0000       1.279912        34.8282 
 346   0.0000       1.282487        34.8982 
 347   0.0000       1.290196        35.1080 
 348   0.0000       1.294199        35.2169 
 349   0.0000       1.295063        35.2405 
 350   0.0000       1.307182        35.5702 
 351   0.0000       1.308522        35.6067 
 352   0.0000       1.313464        35.7412 
 353   0.0000       1.327898        36.1339 
 354   0.0000       1.330261        36.1982 
 355   0.0000       1.331255        36.2253 
 356   0.0000       1.368227        37.2314 
 357   0.0000       1.368675        37.2435 
 358   0.0000       1.382005        37.6063 
 359   0.0000       1.384725        37.6803 
 360   0.0000       1.385505        37.7015 
 361   0.0000       1.402927        38.1756 
 362   0.0000       1.403717        38.1971 
 363   0.0000       1.405099        38.2347 
 364   0.0000       1.412037        38.4235 
 365   0.0000       1.428933        38.8832 
 366   0.0000       1.429643        38.9026 
 367   0.0000       1.437949        39.1286 
 368   0.0000       1.440494        39.1978 
 369   0.0000       1.441032        39.2125 
 370   0.0000       1.455084        39.5949 
 371   0.0000       1.455868        39.6162 
 372   0.0000       1.464229        39.8437 
 373   0.0000       1.485144        40.4128 
 374   0.0000       1.487004        40.4634 
 375   0.0000       1.487734        40.4833 
 376   0.0000       1.496172        40.7129 
 377   0.0000       1.497834        40.7581 
 378   0.0000       1.498247        40.7694 
 379   0.0000       1.505510        40.9670 
 380   0.0000       1.506991        41.0073 
 381   0.0000       1.508520        41.0489 
 382   0.0000       1.511743        41.1366 
 383   0.0000       1.517853        41.3029 
 384   0.0000       1.519172        41.3388 
 385   0.0000       1.530852        41.6566 
 386   0.0000       1.532977        41.7144 
 387   0.0000       1.533108        41.7180 
 388   0.0000       1.539499        41.8919 
 389   0.0000       1.540672        41.9238 
 390   0.0000       1.541176        41.9375 
 391   0.0000       1.553839        42.2821 
 392   0.0000       1.565083        42.5881 
 393   0.0000       1.565354        42.5955 
 394   0.0000       1.566454        42.6254 
 395   0.0000       1.571275        42.7566 
 396   0.0000       1.572249        42.7831 
 397   0.0000       1.583304        43.0839 
 398   0.0000       1.598543        43.4986 
 399   0.0000       1.599024        43.5116 
 400   0.0000       1.611800        43.8593 
 401   0.0000       1.615424        43.9579 
 402   0.0000       1.616532        43.9881 
 403   0.0000       1.621181        44.1146 
 404   0.0000       1.641953        44.6798 
 405   0.0000       1.645369        44.7728 
 406   0.0000       1.651067        44.9278 
 407   0.0000       1.651490        44.9393 
 408   0.0000       1.662313        45.2338 
 409   0.0000       1.662848        45.2484 
 410   0.0000       1.668375        45.3988 
 411   0.0000       1.668696        45.4075 
 412   0.0000       1.686020        45.8789 
 413   0.0000       1.686742        45.8986 
 414   0.0000       1.687979        45.9323 
 415   0.0000       1.688044        45.9340 
 416   0.0000       1.688350        45.9423 
 417   0.0000       1.708019        46.4776 
 418   0.0000       1.731492        47.1163 
 419   0.0000       1.731692        47.1217 
 420   0.0000       1.736014        47.2393 
 421   0.0000       1.744336        47.4658 
 422   0.0000       1.745302        47.4921 
 423   0.0000       1.750026        47.6206 
 424   0.0000       1.752458        47.6868 
 425   0.0000       1.753265        47.7088 
 426   0.0000       1.763361        47.9835 
 427   0.0000       1.763441        47.9857 
 428   0.0000       1.781032        48.4644 
 429   0.0000       1.801273        49.0151 
 430   0.0000       1.802028        49.0357 
 431   0.0000       1.806796        49.1654 
 432   0.0000       1.806968        49.1701 
 433   0.0000       1.812170        49.3116 
 434   0.0000       1.812845        49.3300 
 435   0.0000       1.819344        49.5069 
 436   0.0000       1.819829        49.5201 
 437   0.0000       1.825311        49.6692 
 438   0.0000       1.832585        49.8672 
 439   0.0000       1.832775        49.8723 
 440   0.0000       1.835554        49.9480 
 441   0.0000       1.840486        50.0822 
 442   0.0000       1.841160        50.1005 
 443   0.0000       1.851293        50.3762 
 444   0.0000       1.855853        50.5003 
 445   0.0000       1.855901        50.5016 
 446   0.0000       1.857575        50.5472 
 447   0.0000       1.858282        50.5664 
 448   0.0000       1.858921        50.5838 
 449   0.0000       1.870132        50.8889 
 450   0.0000       1.905647        51.8553 
 451   0.0000       1.906239        51.8714 
 452   0.0000       1.907267        51.8994 
 453   0.0000       1.926089        52.4116 
 454   0.0000       1.930881        52.5420 
 455   0.0000       1.932977        52.5990 
 456   0.0000       1.939691        52.7817 
 457   0.0000       1.939929        52.7882 
 458   0.0000       1.943965        52.8980 
 459   0.0000       1.944474        52.9118 
 460   0.0000       1.950943        53.0878 
 461   0.0000       1.951123        53.0928 
 462   0.0000       1.967253        53.5317 
 463   0.0000       1.969411        53.5904 
 464   0.0000       1.971337        53.6428 
 465   0.0000       1.971462        53.6462 
 466   0.0000       1.993150        54.2364 
 467   0.0000       1.997390        54.3517 
 468   0.0000       1.997513        54.3551 
 469   0.0000       2.007323        54.6220 
 470   0.0000       2.007515        54.6273 
 471   0.0000       2.015337        54.8401 
 472   0.0000       2.017301        54.8935 
 473   0.0000       2.017462        54.8979 
 474   0.0000       2.024044        55.0770 
 475   0.0000       2.032878        55.3174 
 476   0.0000       2.033042        55.3219 
 477   0.0000       2.039739        55.5041 
 478   0.0000       2.040161        55.5156 
 479   0.0000       2.043488        55.6061 
 480   0.0000       2.052938        55.8633 
 481   0.0000       2.053008        55.8652 
 482   0.0000       2.069128        56.3038 
 483   0.0000       2.081920        56.6519 
 484   0.0000       2.084768        56.7294 
 485   0.0000       2.086850        56.7861 
 486   0.0000       2.087274        56.7976 
 487   0.0000       2.105895        57.3043 
 488   0.0000       2.106049        57.3085 
 489   0.0000       2.110572        57.4316 
 490   0.0000       2.118651        57.6514 
 491   0.0000       2.118700        57.6528 
 492   0.0000       2.124632        57.8142 
 493   0.0000       2.126039        57.8525 
 494   0.0000       2.126541        57.8661 
 495   0.0000       2.151225        58.5378 
 496   0.0000       2.163014        58.8586 
 497   0.0000       2.178997        59.2935 
 498   0.0000       2.179473        59.3065 
 499   0.0000       2.193463        59.6871 
 500   0.0000       2.209409        60.1211 
 501   0.0000       2.213423        60.2303 
 502   0.0000       2.213923        60.2439 
 503   0.0000       2.224007        60.5183 
 504   0.0000       2.224879        60.5420 
 505   0.0000       2.225031        60.5462 
 506   0.0000       2.229351        60.6637 
 507   0.0000       2.229854        60.6774 
 508   0.0000       2.250474        61.2385 
 509   0.0000       2.250771        61.2466 
 510   0.0000       2.274600        61.8950 
 511   0.0000       2.275038        61.9069 
 512   0.0000       2.290743        62.3343 
 513   0.0000       2.296297        62.4854 
 514   0.0000       2.307708        62.7959 
 515   0.0000       2.308096        62.8065 
 516   0.0000       2.314374        62.9773 
 517   0.0000       2.326539        63.3084 
 518   0.0000       2.348021        63.8929 
 519   0.0000       2.348176        63.8971 
 520   0.0000       2.359018        64.1922 
 521   0.0000       2.359342        64.2010 
 522   0.0000       2.359844        64.2146 
 523   0.0000       2.395568        65.1867 
 524   0.0000       2.395642        65.1887 
 525   0.0000       2.417943        65.7956 
 526   0.0000       2.423873        65.9569 
 527   0.0000       2.424029        65.9612 
 528   0.0000       2.426695        66.0337 
 529   0.0000       2.435547        66.2746 
 530   0.0000       2.436051        66.2883 
 531   0.0000       2.446386        66.5696 
 532   0.0000       2.456826        66.8536 
 533   0.0000       2.457109        66.8613 
 534   0.0000       2.468090        67.1601 
 535   0.0000       2.468713        67.1771 
 536   0.0000       2.474250        67.3278 
 537   0.0000       2.479562        67.4723 
 538   0.0000       2.511567        68.3432 
 539   0.0000       2.511759        68.3484 
 540   0.0000       2.522419        68.6385 
 541   0.0000       2.550343        69.3984 
 542   0.0000       2.564891        69.7942 
 543   0.0000       2.565349        69.8067 
 544   0.0000       2.584357        70.3239 
 545   0.0000       2.588239        70.4296 
 546   0.0000       2.600050        70.7510 
 547   0.0000       2.600381        70.7600 
 548   0.0000       2.616877        71.2088 
 549   0.0000       2.617426        71.2238 
 550   0.0000       2.632979        71.6470 
 551   0.0000       2.633260        71.6547 
 552   0.0000       2.633623        71.6645 
 553   0.0000       2.671680        72.7001 
 554   0.0000       2.682875        73.0048 
 555   0.0000       2.694554        73.3225 
 556   0.0000       2.695007        73.3349 
 557   0.0000       2.739715        74.5514 
 558   0.0000       2.745387        74.7058 
 559   0.0000       2.747903        74.7742 
[...]
 521( 0) :     2.359345 a.u.    64.201 eV
 522( 0) :     2.359844 a.u.    64.215 eV
 523( 0) :     2.395567 a.u.    65.187 eV
 524( 0) :     2.395645 a.u.    65.189 eV
 525( 0) :     2.417945 a.u.    65.796 eV
 526( 0) :     2.423874 a.u.    65.957 eV
 527( 0) :     2.424032 a.u.    65.961 eV
 528( 0) :     2.426699 a.u.    66.034 eV
 529( 0) :     2.435548 a.u.    66.275 eV
 530( 0) :     2.436052 a.u.    66.288 eV
 531( 0) :     2.446387 a.u.    66.570 eV
 532( 0) :     2.456829 a.u.    66.854 eV
 533( 0) :     2.457112 a.u.    66.861 eV
 534( 0) :     2.468092 a.u.    67.160 eV
 535( 0) :     2.468716 a.u.    67.177 eV
 536( 0) :     2.474253 a.u.    67.328 eV
 537( 0) :     2.479561 a.u.    67.472 eV
 538( 0) :     2.511568 a.u.    68.343 eV
 539( 0) :     2.511762 a.u.    68.349 eV
 540( 0) :     2.522417 a.u.    68.638 eV
 541( 0) :     2.550345 a.u.    69.398 eV
 542( 0) :     2.564891 a.u.    69.794 eV
 543( 0) :     2.565346 a.u.    69.807 eV
 544( 0) :     2.584361 a.u.    70.324 eV
 545( 0) :     2.588233 a.u.    70.429 eV
 546( 0) :     2.600052 a.u.    70.751 eV
 547( 0) :     2.600380 a.u.    70.760 eV
 548( 0) :     2.616877 a.u.    71.209 eV
 549( 0) :     2.617423 a.u.    71.224 eV
 550( 0) :     2.632980 a.u.    71.647 eV
 551( 0) :     2.633261 a.u.    71.655 eV
 552( 0) :     2.633623 a.u.    71.665 eV
 553( 0) :     2.671680 a.u.    72.700 eV
 554( 0) :     2.682876 a.u.    73.005 eV
 555( 0) :     2.694555 a.u.    73.323 eV
 556( 0) :     2.695006 a.u.    73.335 eV
 557( 0) :     2.739718 a.u.    74.552 eV
 558( 0) :     2.745389 a.u.    74.706 eV
 559( 0) :     2.747904 a.u.    74.774 eV
 560( 0) :     2.748078 a.u.    74.779 eV
 561( 0) :     2.757999 a.u.    75.049 eV
 562( 0) :     2.758169 a.u.    75.054 eV
 563( 0) :     2.768134 a.u.    75.325 eV
 564( 0) :     2.768643 a.u.    75.339 eV
 565( 0) :     2.777432 a.u.    75.578 eV
 566( 0) :     2.784904 a.u.    75.781 eV
 567( 0) :     2.785617 a.u.    75.800 eV
 568( 0) :     2.791163 a.u.    75.951 eV
 569( 0) :     2.796110 a.u.    76.086 eV
 570( 0) :     2.796333 a.u.    76.092 eV
 571( 0) :     2.798402 a.u.    76.148 eV
 572( 0) :     2.818528 a.u.    76.696 eV
 573( 0) :     2.819904 a.u.    76.733 eV
 574( 0) :     2.856998 a.u.    77.743 eV
 575( 0) :     2.859563 a.u.    77.813 eV
 576( 0) :     2.860512 a.u.    77.838 eV
 577( 0) :     2.875815 a.u.    78.255 eV
 578( 0) :     2.876039 a.u.    78.261 eV
 579( 0) :     2.910445 a.u.    79.197 eV
 580( 0) :     2.911547 a.u.    79.227 eV
 581( 0) :     2.922701 a.u.    79.531 eV
 582( 0) :     2.922912 a.u.    79.536 eV
 583( 0) :     2.924801 a.u.    79.588 eV
 584( 0) :     2.934319 a.u.    79.847 eV
 585( 0) :     2.963022 a.u.    80.628 eV
 586( 0) :     2.964137 a.u.    80.658 eV
 587( 0) :     2.975503 a.u.    80.968 eV
 588( 0) :     2.986533 a.u.    81.268 eV
 589( 0) :     2.987094 a.u.    81.283 eV
 590( 0) :     3.062902 a.u.    83.346 eV
 591( 0) :     3.063664 a.u.    83.367 eV
 592( 0) :     3.067070 a.u.    83.459 eV
 593( 0) :     3.140887 a.u.    85.468 eV
 594( 0) :     3.800463 a.u.   103.416 eV
 595( 0) :     3.805054 a.u.   103.541 eV
 596( 0) :     3.834773 a.u.   104.349 eV
 597( 0) :     3.850281 a.u.   104.771 eV
 598( 0) :     3.885536 a.u.   105.731 eV
 599( 0) :     3.885871 a.u.   105.740 eV
 600( 0) :     5.167309 a.u.   140.610 eV
 601( 0) :     5.167585 a.u.   140.617 eV
 602( 0) :     5.176365 a.u.   140.856 eV
 603( 0) :     5.182120 a.u.   141.013 eV
 604( 0) :     5.182330 a.u.   141.018 eV
 605( 0) :     5.184982 a.u.   141.091 eV
 606( 0) :     5.280420 a.u.   143.688 eV
 607( 0) :     5.280452 a.u.   143.688 eV
 608( 0) :     5.285544 a.u.   143.827 eV
 609( 0) :     5.287565 a.u.   143.882 eV
 610( 0) :     5.287621 a.u.   143.883 eV
 611( 0) :     5.289821 a.u.   143.943 eV
 612( 0) :     5.298304 a.u.   144.174 eV
 613( 0) :     5.298571 a.u.   144.181 eV
 614( 0) :     5.301139 a.u.   144.251 eV
 615( 0) :     5.319070 a.u.   144.739 eV
 616( 0) :     5.319296 a.u.   144.745 eV
 617( 0) :     5.338327 a.u.   145.263 eV
 618( 0) :     5.371456 a.u.   146.165 eV
 619( 0) :     5.372105 a.u.   146.182 eV
 620( 0) :     5.383218 a.u.   146.485 eV
 621( 0) :     5.399041 a.u.   146.915 eV
 622( 0) :     5.399509 a.u.   146.928 eV
 623( 0) :     5.402837 a.u.   147.019 eV
 624( 0) :     5.416714 a.u.   147.396 eV
 625( 0) :     5.455397 a.u.   148.449 eV
 626( 0) :     5.456052 a.u.   148.467 eV
 627( 0) :     5.456186 a.u.   148.470 eV
 628( 0) :     5.486307 a.u.   149.290 eV
 629( 0) :     5.487092 a.u.   149.311 eV
 630( 0) :     5.487331 a.u.   149.318 eV
 631( 0) :     5.506816 a.u.   149.848 eV
 632( 0) :     5.520167 a.u.   150.211 eV
 633( 0) :     5.521203 a.u.   150.240 eV
 634( 0) :     5.546028 a.u.   150.915 eV
 635( 0) :     5.546121 a.u.   150.918 eV
 636( 0) :     5.557310 a.u.   151.222 eV
 637( 0) :     5.584080 a.u.   151.951 eV
 638( 0) :     5.587139 a.u.   152.034 eV
 639( 0) :     5.587720 a.u.   152.050 eV
 640( 0) :     5.646346 a.u.   153.645 eV
 641( 0) :     5.646785 a.u.   153.657 eV
 642( 0) :     5.669289 a.u.   154.269 eV
 643( 0) :     5.729661 a.u.   155.912 eV
 644( 0) :     5.730282 a.u.   155.929 eV
 645( 0) :     5.745459 a.u.   156.342 eV
 646( 0) :     5.753300 a.u.   156.555 eV
 647( 0) :     5.758597 a.u.   156.699 eV
 648( 0) :     5.758906 a.u.   156.708 eV
 649( 0) :     5.839131 a.u.   158.891 eV
 650( 0) :     5.839192 a.u.   158.892 eV
 651( 0) :     5.894632 a.u.   160.401 eV
 652( 0) :     5.990047 a.u.   162.997 eV
 653( 0) :     5.990304 a.u.   163.004 eV
 654( 0) :     6.074556 a.u.   165.297 eV
 655( 0) :     6.074996 a.u.   165.309 eV
 656( 0) :     6.085184 a.u.   165.586 eV
 657( 0) :     6.096986 a.u.   165.907 eV
 658( 0) :     6.107044 a.u.   166.181 eV
 659( 0) :     6.107216 a.u.   166.186 eV
 660( 0) :     6.114566 a.u.   166.386 eV
 661( 0) :     6.115267 a.u.   166.405 eV
 662( 0) :     6.121917 a.u.   166.586 eV
 663( 0) :     7.460520 a.u.   203.011 eV
 664( 0) :    29.649993 a.u.   806.817 eV
 665( 0) :    29.717749 a.u.   808.661 eV
 666( 0) :    29.717978 a.u.   808.667 eV
 667( 0) :    29.782766 a.u.   810.430 eV
 668( 0) :    29.793227 a.u.   810.715 eV
 669( 0) :    29.793458 a.u.   810.721 eV
 670( 0) :    29.832341 a.u.   811.779 eV
 671( 0) :    30.010017 a.u.   816.614 eV
 672( 0) :    30.010325 a.u.   816.622 eV
 673( 0) :    30.019241 a.u.   816.865 eV
 674( 0) :    30.035437 a.u.   817.306 eV
 675( 0) :    30.041211 a.u.   817.463 eV
 676( 0) :    30.041343 a.u.   817.467 eV
 677( 0) :    30.108563 a.u.   819.296 eV
 678( 0) :    30.108601 a.u.   819.297 eV
 679( 0) :    30.148935 a.u.   820.394 eV
 680( 0) :    30.240251 a.u.   822.879 eV
 681( 0) :    30.240286 a.u.   822.880 eV
 682( 0) :    30.295774 a.u.   824.390 eV
 683( 0) :    30.295955 a.u.   824.395 eV
 684( 0) :    30.319258 a.u.   825.029 eV
 685( 0) :    30.321278 a.u.   825.084 eV
 686( 0) :    30.329346 a.u.   825.303 eV
 687( 0) :    30.329412 a.u.   825.305 eV
 688( 0) :    30.333864 a.u.   825.426 eV
 689( 0) :    30.338786 a.u.   825.560 eV
 690( 0) :    30.339034 a.u.   825.567 eV
 691( 0) :    36.673585 a.u.   997.939 eV
 692( 0) :    36.681705 a.u.   998.160 eV
 693( 0) :    36.681837 a.u.   998.164 eV
 694( 0) :    36.763939 a.u.  1000.398 eV
 695( 0) :    36.766196 a.u.  1000.459 eV
 696( 0) :    36.774744 a.u.  1000.692 eV
 697( 0) :    36.862971 a.u.  1003.092 eV
 698( 0) :    36.878847 a.u.  1003.524 eV
 699( 0) :    36.878919 a.u.  1003.526 eV
 700( 0) :    36.893356 a.u.  1003.919 eV
 701( 0) :    36.893391 a.u.  1003.920 eV
 702( 0) :    36.893527 a.u.  1003.924 eV
 703( 0) :    36.894571 a.u.  1003.952 eV
 704( 0) :    36.905559 a.u.  1004.251 eV
 705( 0) :    36.905883 a.u.  1004.260 eV
 706( 0) :    36.909033 a.u.  1004.346 eV
 707( 0) :    36.909218 a.u.  1004.351 eV
 708( 0) :    36.939162 a.u.  1005.166 eV
 709( 0) :    36.962143 a.u.  1005.791 eV
 710( 0) :    36.962155 a.u.  1005.791 eV
 711( 0) :    36.978877 a.u.  1006.246 eV
 712( 0) :    36.987467 a.u.  1006.480 eV
 713( 0) :    37.012465 a.u.  1007.160 eV
 714( 0) :    37.012876 a.u.  1007.172 eV
 715( 0) :    37.015739 a.u.  1007.249 eV
 716( 0) :    37.026565 a.u.  1007.544 eV
 717( 0) :    37.032522 a.u.  1007.706 eV
 718( 0) :    37.105308 a.u.  1009.687 eV
 719( 0) :    37.105818 a.u.  1009.701 eV
 720( 0) :    37.111747 a.u.  1009.862 eV
 721( 0) :    37.246186 a.u.  1013.520 eV
 722( 0) :    37.253654 a.u.  1013.723 eV
 723( 0) :    37.269460 a.u.  1014.154 eV
 724( 0) :    37.358285 a.u.  1016.571 eV
 725( 0) :    37.370896 a.u.  1016.914 eV
 726( 0) :    37.371167 a.u.  1016.921 eV
 727( 0) :    41.163164 a.u.  1120.107 eV
-------
TIMINGS
-------

Total SCF time: 0 days 0 hours 1 min 9 sec 

Total time                  ....      69.617 sec
Sum of individual times     ....      66.000 sec  ( 94.8%)

Fock matrix formation       ....      43.129 sec  ( 62.0%)
  Split-RI-J                ....      24.738 sec  ( 57.4% of F)
  XC integration            ....      11.356 sec  ( 26.3% of F)
    Basis function eval.    ....       0.358 sec  (  3.2% of XC)
    Density eval.           ....       0.927 sec  (  8.2% of XC)
    XC-Functional eval.     ....       0.055 sec  (  0.5% of XC)
    XC-Potential eval.      ....       1.360 sec  ( 12.0% of XC)
Diagonalization             ....       8.229 sec  ( 11.8%)
Density matrix formation    ....       0.635 sec  (  0.9%)
Population analysis         ....       4.246 sec  (  6.1%)
Initial guess               ....       0.792 sec  (  1.1%)
Orbital Transformation      ....       0.000 sec  (  0.0%)
Orbital Orthonormalization  ....       0.000 sec  (  0.0%)
DIIS solution               ....       5.971 sec  (  8.6%)
Grid generation             ....       2.998 sec  (  4.3%)

-------------------------   --------------------
FINAL SINGLE POINT ENERGY     -1103.168040174455
-------------------------   --------------------

   --->>> SOC part of D-tensor requested, so NeedSOC=true

                            ***************************************
                            *     ORCA property calculations      *
                            ***************************************

                                    ---------------------
                                    Active property flags
                                    ---------------------
   (+) Dipole Moment
   (+) D-tensor
   (+) Spin-Orbit Integrals are needed


------------------------------------------------------------------------------
                       ORCA ELECTRIC PROPERTIES CALCULATION
------------------------------------------------------------------------------

Dipole Moment Calculation                       ... on
Quadrupole Moment Calculation                   ... off
Polarizability Calculation                      ... off
GBWName                                         ... zfs.gbw
Electron density file                           ... zfs.scfp
The origin for moment calculation is the CENTER OF MASS  = (-0.000006,  0.000054 -3.167486)

-------------
DIPOLE MOMENT
-------------
                                X             Y             Z
Electronic contribution:      0.00001       0.01418       1.06747
Nuclear contribution   :      0.00000      -0.00381      -0.32886
                        -----------------------------------------
Total Dipole Moment    :      0.00001       0.01037       0.73861
                        -----------------------------------------
Magnitude (a.u.)       :      0.73868
Magnitude (Debye)      :      1.87758



--------------------
Rotational spectrum 
--------------------
 
Rotational constants in cm-1:     0.009246     0.009141     0.009141 
Rotational constants in MHz :   277.183097   274.048600   274.045280 

 Dipole components along the rotational axes: 
x,y,z [a.u.] :     0.738600     0.010921    -0.000737 
x,y,z [Debye]:     1.877371     0.027758    -0.001874 

 


           ************************************************************
           *        Program running with 72 parallel MPI-processes    *
           *              working on a shared directory               *
           ************************************************************
------------------------------------------------------------------------------
                         ORCA SPIN-ORBIT COUPLING CALCULATION
------------------------------------------------------------------------------

GBW file                                    ... zfs.gbw
Input density                               ... zfs.scfp
Output integrals                            ... zfs
Operator type                               ... Mean-field/Effective potential
   One-Electron Terms                       ... 1
   Coulomb Contribution                     ... 2
   Exchange Contribution                    ... 3
   Correlation Contribution                 ... 0
   Maximum number of centers                ... 4
Setting up the integration grid             ... done
Evaluating density on the grid              ... (NumEl=  205.997287) done
Evaluating Coulomb term semi-analytically   ... done
One-Center Exchange (+SOO)                  ... done
Evaluating the spin-orbit operator          ... done
Total time for SOC: 67.777


           ************************************************************
           *        Program running with 72 parallel MPI-processes    *
           *              working on a shared directory               *
           ************************************************************
------------------------------------------------------------------------------
                                ORCA EPR/NMR CALCULATION
------------------------------------------------------------------------------

GBWName                      ... zfs.gbw
Electron density file        ... zfs.scfp
Spin density file            ... zfs.scfr
Spin-orbit integrals         ... zfs
Multiplicity                 ... 3
g-tensor                     ... 0
NMR chemical shifts          ... 0
D-tensor                     ... spin-spin and spin-orbit
D(SS)-algorithm              ... spin-density from UNOs
D(SOC)-algorithm             ... CP (=Coupled-perturbed)
Active orbitals for UNO spin density= 102 .. 103

Starting the spin-spin zero-field-splitting computation (UNO)...
                        ... done with spin-spin calculation

Starting the spin-orbit zero-field-splitting computation (CP)...
Transforming integrals                       ... Max(Pert)=   5.6149e-06
Warning: Perturbation too small - adjusting
Transforming integrals                       ... Max(Pert)=   6.1147e-05
Warning: Perturbation too small - adjusting
Transforming integrals                       ... Max(Pert)=   6.6589e-04
Warning: Perturbation too small - adjusting
Transforming integrals                       ... Max(Pert)=   7.2515e-03
done
    ... no HF exchange - skipping linear equations
ZFS-Tensor - using the prefactors
   -1/(4S**2) for same spin
    1/(2*S*(2*S-1)) for alpha->beta
    1/((S+1)*(2*S+1)) for beta->alpha
                        ... done with spin-orbit calculation

---------------------------
ZERO-FIELD-SPLITTING TENSOR
---------------------------

raw-matrix : 
   0.019891     0.000081     0.000005  
   0.000081     0.019978    -0.000035  
   0.000005    -0.000035     0.087164  

Tensor is right-handed
diagonalized D matrix : 
   0.019843     0.020027     0.087164  

   0.858429     0.512932     0.000067  
  -0.512932     0.858429    -0.000524  
  -0.000326     0.000416     1.000000  


Direction X=1 Y=0 Z=2
D   =     0.067230  cm**-1
E/D =     0.001365

SPIN-SPIN-PART
                   0          1          2    
      0      -0.021937   0.000080  -0.000001
      1       0.000080  -0.021868  -0.000028
      2      -0.000001  -0.000028   0.043805
Exchange and Coulomb parts of SS (raw)
Coulomb
                   0          1          2    
      0      -0.018883   0.004042  -0.000053
      1       0.004042  -0.013356   0.000008
      2      -0.000053   0.000008   0.032239
Exchange
                   0          1          2    
      0      -0.003054  -0.003962   0.000051
      1      -0.003962  -0.008512  -0.000035
      2       0.000051  -0.000035   0.011566
One-, two-, three- and four-center SS contributions (raw)
One-Center            (AA|AA):
                   0          1          2    
      0      -0.001592  -0.000018   0.000020
      1      -0.000018  -0.001424   0.000057
      2       0.000020   0.000057   0.003015
Two-Center-Coulomb    (AA|BB):
                   0          1          2    
      0      -0.316164  -0.013236   0.000827
      1      -0.013236  -0.376637  -0.007666
      2       0.000827  -0.007666   0.692801
Two-Center-Exchange   (AB|BA):
                   0          1          2    
      0      -0.012640   0.000352  -0.000181
      1       0.000352  -0.016340   0.000376
      2      -0.000181   0.000376   0.028980
Two-Center-hybrid     (AA|AB):
                   0          1          2    
      0       0.000839   0.000103  -0.000061
      1       0.000103   0.002063  -0.000806
      2      -0.000061  -0.000806  -0.002902
Three-Center-Coulomb  (AA|BC):
                   0          1          2    
      0       0.539119   0.023348  -0.002644
      1       0.023348   0.649007   0.012457
      2      -0.002644   0.012457  -1.188126
Three-Center-Exchange (AB|AC):
                   0          1          2    
      0      -0.006730  -0.000008   0.000636
      1      -0.000008  -0.001818   0.000661
      2       0.000636   0.000661   0.008548
Four-Center           (AB|CD):
                   0          1          2    
      0      -0.224769  -0.010461   0.001402
      1      -0.010461  -0.276720  -0.005107
      2       0.001402  -0.005107   0.501489
ALPHA-PART
                   0          1          2    
      0      -0.113511   0.000002  -0.000002
      1       0.000002  -0.113523   0.000005
      2      -0.000002   0.000005  -0.108851
BETA-PART
                   0          1          2    
      0      -0.111420   0.000004  -0.000002
      1       0.000004  -0.111426   0.000020
      2      -0.000002   0.000020  -0.104877
ALPHA->BETA-PART
                   0          1          2    
      0       0.230143  -0.000004   0.000010
      1      -0.000004   0.230180  -0.000028
      2       0.000010  -0.000028   0.222869
BETA->ALPHA-PART
                   0          1          2    
      0       0.036615  -0.000001   0.000000
      1      -0.000001   0.036616  -0.000005
      2       0.000000  -0.000005   0.034218

Individual contributions (in cm**-1)
                                   D         E
SPIN-SPIN                  :   0.06571    0.00009
  Exchange vs Coulomb
  Coulomb                  :   0.04836    0.00487
  Exchange                 :   0.01735   -0.00478
  One through four center contributions:
  1-center                 :   0.00452    0.00002
  2-center-Coulomb         :   1.03921   -0.02598
  2-center-Exchange        :   0.04347   -0.00057
  2-center-Hybrid          :  -0.00435    0.00038
  3-center-Coulomb         :  -1.78221    0.04659
  3-center-Exchange        :   0.01282    0.00116
  4-center                 :   0.75224   -0.02152
SPIN-ORBIT                 :   0.00152    0.00000
SOMO->VMO  (alpha->alpha)  :   0.00467   -0.00000
DOMO->SOMO (beta ->beta )  :   0.00655    0.00000
SOMO->SOMO (alpha->beta )  :  -0.00729    0.00001
DOMO->VMO  (beta ->alpha)  :  -0.00240   -0.00000


Timings for individual modules:

Sum of individual times         ...      264.229 sec (=   4.404 min)
GTO integral calculation        ...       14.031 sec (=   0.234 min)   5.3 %
Spin-Orbit-Coupling Matrices    ...       67.767 sec (=   1.129 min)  25.6 %
SCF iterations                  ...       77.265 sec (=   1.288 min)  29.2 %
EPR/NMR calculation             ...      105.167 sec (=   1.753 min)  39.8 %
                             ****ORCA TERMINATED NORMALLY****
TOTAL RUN TIME: 0 days 0 hours 4 minutes 41 seconds 60 msec
