
                                 *****************
                                 * O   R   C   A *
                                 *****************

           --- An Ab Initio, DFT and Semiempirical electronic structure package ---

                  #######################################################
                  #                        -***-                        #
                  #          Department of theory and spectroscopy      #
                  #               Directorship: Frank Neese             #
                  #        Max Planck Institute fuer Kohlenforschung    #
                  #                Kaiser Wilhelm Platz 1               #
                  #                 D-45470 Muelheim/Ruhr               #
                  #                      Germany                        #
                  #                                                     #
                  #                  All rights reserved                #
                  #                        -***-                        #
                  #######################################################


                         Program Version 4.2.1 -  RELEASE  -


 With contributions from (in alphabetic order):
   Daniel Aravena         : Magnetic Suceptibility
   Michael Atanasov       : Ab Initio Ligand Field Theory (pilot matlab implementation)
   Alexander A. Auer      : GIAO ZORA, VPT2
   Ute Becker             : Parallelization
   Giovanni Bistoni       : ED, misc. LED, open-shell LED, HFLD
   Martin Brehm           : Molecular dynamics
   Dmytro Bykov           : SCF Hessian
   Vijay G. Chilkuri      : MRCI spin determinant printing, contributions to CSF-ICE
   Dipayan Datta          : RHF DLPNO-CCSD density
   Achintya Kumar Dutta   : EOM-CC, STEOM-CC
   Dmitry Ganyushin       : Spin-Orbit,Spin-Spin,Magnetic field MRCI
   Miquel Garcia          : C-PCM Hessian, Gaussian charge scheme
   Yang Guo               : DLPNO-NEVPT2, CIM, IAO-localization
   Andreas Hansen         : Spin unrestricted coupled pair/coupled cluster methods
   Benjamin Helmich-Paris : CASSCF linear response (MC-RPA)
   Lee Huntington         : MR-EOM, pCC
   Robert Izsak           : Overlap fitted RIJCOSX, COSX-SCS-MP3, EOM
   Christian Kollmar      : KDIIS, OOCD, Brueckner-CCSD(T), CCSD density
   Simone Kossmann        : Meta GGA functionals, TD-DFT gradient, OOMP2, MP2 Hessian
   Martin Krupicka        : AUTO-CI
   Lucas Lang             : DCDCAS
   Dagmar Lenk            : GEPOL surface, SMD
   Dimitrios Liakos       : Extrapolation schemes; Compound Job, initial MDCI parallelization
   Dimitrios Manganas     : Further ROCIS development; embedding schemes
   Dimitrios Pantazis     : SARC Basis sets
   Taras Petrenko         : DFT Hessian,TD-DFT gradient, ASA, ECA, R-Raman, ABS, FL, XAS/XES, NRVS
   Peter Pinski           : DLPNO-MP2, DLPNO-MP2 Gradient
   Christoph Reimann      : Effective Core Potentials
   Marius Retegan         : Local ZFS, SOC
   Christoph Riplinger    : Optimizer, TS searches, QM/MM, DLPNO-CCSD(T), (RO)-DLPNO pert. Triples
   Tobias Risthaus        : Range-separated hybrids, TD-DFT gradient, RPA, STAB
   Michael Roemelt        : Original ROCIS implementation
   Masaaki Saitow         : Open-shell DLPNO-CCSD energy and density
   Barbara Sandhoefer     : DKH picture change effects
   Avijit Sen             : IP-ROCIS
   Kantharuban Sivalingam : CASSCF convergence, NEVPT2, FIC-MRCI
   Bernardo de Souza      : ESD, SOC TD-DFT
   Georgi Stoychev        : AutoAux, RI-MP2 NMR
   Willem Van den Heuvel  : Paramagnetic NMR
   Boris Wezisla          : Elementary symmetry handling
   Frank Wennmohs         : Technical directorship


 We gratefully acknowledge several colleagues who have allowed us to
 interface, adapt or use parts of their codes:
   Stefan Grimme, W. Hujo, H. Kruse,             : VdW corrections, initial TS optimization,
                  C. Bannwarth                     DFT functionals, gCP, sTDA/sTD-DF
   Ed Valeev, F. Pavosevic, A. Kumar             : LibInt (2-el integral package), F12 methods
   Garnet Chan, S. Sharma, J. Yang, R. Olivares  : DMRG
   Ulf Ekstrom                                   : XCFun DFT Library
   Mihaly Kallay                                 : mrcc  (arbitrary order and MRCC methods)
   Andreas Klamt, Michael Diedenhofen            : otool_cosmo (COSMO solvation model)
   Jiri Pittner, Ondrej Demel                    : Mk-CCSD
   Frank Weinhold                                : gennbo (NPA and NBO analysis)
   Christopher J. Cramer and Donald G. Truhlar   : smd solvation model
   Lars Goerigk                                  : TD-DFT with DH, B97 family of functionals
   V. Asgeirsson, H. Jonsson                     : NEB implementation
   FAccTs GmbH                                   : IRC, NEB, NEB-TS, Multilevel, MM, QM/MM, CI optimization
   S Lehtola, MJT Oliveira, MAL Marques          : LibXC Library


 Your calculation uses the libint2 library for the computation of 2-el integrals
 For citations please refer to: http://libint.valeyev.net

 Your ORCA version has been built with support for libXC version: 4.2.3
 For citations please refer to: https://tddft.org/programs/libxc/

 This ORCA versions uses:
   CBLAS   interface :  Fast vector & matrix operations
   LAPACKE interface :  Fast linear algebra routines
   SCALAPACK package :  Parallel linear algebra routines




***************************************
The coordinates will be read from file: nv.xyz
***************************************


----- Orbital basis set information -----
Your calculation utilizes the basis: EPR-II
   V. Barone, in Recent Advances in Density Functional Methods, Part 1 (ed. D. P. Chong), World Scientific, Singapore, 1995, p. 287.

----- AuxJ basis set information -----
Your calculation utilizes the AutoAux generation procedure.
  G. L. Stoychev, A. A. Auer, F. Neese, J. Chem. Theory Comput. 13, 554 (2017)

----- AuxC basis set information -----
Your calculation utilizes the AutoAux generation procedure.
  G. L. Stoychev, A. A. Auer, F. Neese, J. Chem. Theory Comput. 13, 554 (2017)

----- AuxJK basis set information -----
Your calculation utilizes the AutoAux generation procedure.
  G. L. Stoychev, A. A. Auer, F. Neese, J. Chem. Theory Comput. 13, 554 (2017)

================================================================================
                                        WARNINGS
                       Please study these warnings very carefully!
================================================================================


WARNING: your system is open-shell and RHF/RKS was chosen
  ===> : WILL SWITCH to UHF/UKS


INFO   : the flag for use of LIBINT has been found!

================================================================================
                                       INPUT FILE
================================================================================
NAME = zfs.in
|  1> # Use EPR-II is a special basis set for epr, autoaux creates a large auxiliary basis
|  2> !PBE EPR-II AUTOAUX RIJCOSX
|  3> 
|  4> # use original (unoptimized) cluster xyz
|  5> *xyzfile -1 3 nv.xyz
|  6> 
|  7> # Parallelization
|  8> %PAL NPROCS 72 END
|  9> 
| 10> # ZFS calculation
| 11> %EPRNMR DTENSOR SSANDSO
| 12>     DSS     UNO
| 13>     DSOC    CP
| 14> END
| 15> 
| 16>                          ****END OF INPUT****
================================================================================

                       ****************************
                       * Single Point Calculation *
                       ****************************

---------------------------------
CARTESIAN COORDINATES (ANGSTROEM)
---------------------------------
  C      1.380820   -0.680978   -2.249811
  C      0.095264   -1.452512   -4.258023
  C      2.414190    1.612982   -2.199697
  C     -2.603923    1.284182   -2.199804
  C      0.189881   -2.897229   -2.199700
  C      1.099878    2.246606   -0.144983
  C     -1.112884   -2.240191   -0.144986
  C     -1.383615    2.083881   -0.145035
  C      1.395686   -2.075823   -0.144933
  C      2.496509    0.156306   -0.144931
  C     -2.495554   -0.170787   -0.145037
  C      0.092957   -1.418833    0.395617
  C     -1.275241    0.628911    0.395566
  C      1.182258    0.789933    0.395618
  C     -0.095321    1.456033   -3.737621
  C      1.308781   -0.645449   -3.737569
  C     -1.213209   -0.810696   -3.737623
  C      1.100180    2.245536   -1.693673
  C     -1.111850   -2.239777   -1.693676
  C     -1.383708    2.082785   -1.693726
  C      1.394673   -2.075543   -1.693623
  C      2.495672    0.156941   -1.693621
  C     -2.494740   -0.170043   -1.693727
  C     -0.100609    1.536236   -2.249865
  C     -1.280060   -0.855325   -2.249867
  C      1.210387    0.808612   -4.258021
  C     -1.305366    0.643773   -4.258075
  N      0.000000    0.000000    0.000000
  H      0.161364   -2.461437   -3.907906
  H      0.094820   -1.445369   -5.328003
  H      2.428810    1.622723   -3.269544
  H      3.250032    2.171457   -1.833101
  H     -3.503333    1.727744   -1.826663
  H     -2.625934    1.295038   -3.269519
  H      0.191053   -2.914757   -3.269548
  H      0.255598   -3.900328   -1.833106
  H      0.198901    2.703603    0.207581
  H      1.949702    2.795773    0.203028
  H     -1.040320   -3.247739    0.207839
  H     -2.021498   -1.794786    0.202756
  H     -2.292475    2.524811    0.207753
  H     -0.543590    2.648059    0.202744
  H      2.241931   -1.524055    0.207668
  H      1.446352   -3.086377    0.203076
  H      3.332781    0.722934    0.207895
  H      2.565074   -0.853267    0.202848
  H     -2.440846   -1.179542    0.207562
  H     -3.396067    0.290610    0.202936
  H      0.093749   -1.431288    1.465539
  H     -1.286469    0.634448    1.465488
  H      1.192621    0.796884    1.465541
  H     -0.161017    2.458799   -4.105093
  H      2.210065   -1.089936   -4.105005
  H     -2.048773   -1.368986   -4.105096
  H      1.041363    3.256333   -2.039696
  H     -1.949599   -2.808413   -2.039701
  H     -1.457272    3.092616   -2.039749
  H      2.299473   -2.530003   -2.039611
  H      3.407008   -0.284264   -2.039609
  H     -3.340699   -0.726391   -2.039752
  H      1.204640    0.804745   -5.328007
  H      2.051029    1.370294   -3.907684
  H     -2.212185    1.090990   -3.907994
  H     -1.298912    0.640592   -5.328055

----------------------------
CARTESIAN COORDINATES (A.U.)
----------------------------
  NO LB      ZA    FRAG     MASS         X           Y           Z
   0 C     6.0000    0    12.011    2.609371   -1.286861   -4.251526
   1 C     6.0000    0    12.011    0.180024   -2.744850   -8.046497
   2 C     6.0000    0    12.011    4.562158    3.048093   -4.156825
   3 C     6.0000    0    12.011   -4.920702    2.426752   -4.157026
   4 C     6.0000    0    12.011    0.358823   -5.474969   -4.156831
   5 C     6.0000    0    12.011    2.078468    4.245469   -0.273977
   6 C     6.0000    0    12.011   -2.103046   -4.233348   -0.273984
   7 C     6.0000    0    12.011   -2.614654    3.937964   -0.274077
   8 C     6.0000    0    12.011    2.637464   -3.922737   -0.273883
   9 C     6.0000    0    12.011    4.717718    0.295375   -0.273880
  10 C     6.0000    0    12.011   -4.715913   -0.322740   -0.274081
  11 C     6.0000    0    12.011    0.175663   -2.681205    0.747607
  12 C     6.0000    0    12.011   -2.409856    1.188470    0.747512
  13 C     6.0000    0    12.011    2.234144    1.492757    0.747611
  14 C     6.0000    0    12.011   -0.180131    2.751505   -7.063080
  15 C     6.0000    0    12.011    2.473238   -1.219722   -7.062982
  16 C     6.0000    0    12.011   -2.292633   -1.531994   -7.063084
  17 C     6.0000    0    12.011    2.079039    4.243448   -3.200578
  18 C     6.0000    0    12.011   -2.101092   -4.232565   -3.200585
  19 C     6.0000    0    12.011   -2.614829    3.935893   -3.200678
  20 C     6.0000    0    12.011    2.635551   -3.922208   -3.200484
  21 C     6.0000    0    12.011    4.716136    0.296576   -3.200481
  22 C     6.0000    0    12.011   -4.714375   -0.321336   -3.200681
  23 C     6.0000    0    12.011   -0.190123    2.903065   -4.251629
  24 C     6.0000    0    12.011   -2.418962   -1.616331   -4.251633
  25 C     6.0000    0    12.011    2.287300    1.528055   -8.046494
  26 C     6.0000    0    12.011   -2.466784    1.216555   -8.046595
  27 N     7.0000    0    14.007    0.000000    0.000000    0.000000
  28 H     1.0000    0     1.008    0.304934   -4.651441   -7.384872
  29 H     1.0000    0     1.008    0.179183   -2.731352  -10.068467
  30 H     1.0000    0     1.008    4.589786    3.066503   -6.178543
  31 H     1.0000    0     1.008    6.141671    4.103459   -3.464060
  32 H     1.0000    0     1.008   -6.620339    3.264963   -3.451893
  33 H     1.0000    0     1.008   -4.962296    2.447267   -6.178495
  34 H     1.0000    0     1.008    0.361037   -5.508092   -6.178550
  35 H     1.0000    0     1.008    0.483011   -7.370552   -3.464069
  36 H     1.0000    0     1.008    0.375869    5.109069    0.392271
  37 H     1.0000    0     1.008    3.684403    5.283245    0.383668
  38 H     1.0000    0     1.008   -1.965920   -6.137337    0.392758
  39 H     1.0000    0     1.008   -3.820078   -3.391653    0.383154
  40 H     1.0000    0     1.008   -4.332149    4.771201    0.392597
  41 H     1.0000    0     1.008   -1.027236    5.004107    0.383131
  42 H     1.0000    0     1.008    4.236635   -2.880047    0.392436
  43 H     1.0000    0     1.008    2.733209   -5.832407    0.383759
  44 H     1.0000    0     1.008    6.298043    1.366148    0.392864
  45 H     1.0000    0     1.008    4.847288   -1.612442    0.383326
  46 H     1.0000    0     1.008   -4.612531   -2.229011    0.392235
  47 H     1.0000    0     1.008   -6.417637    0.549173    0.383494
  48 H     1.0000    0     1.008    0.177161   -2.704742    2.769468
  49 H     1.0000    0     1.008   -2.431074    1.198932    2.769372
  50 H     1.0000    0     1.008    2.253727    1.505892    2.769471
  51 H     1.0000    0     1.008   -0.304278    4.646456   -7.757501
  52 H     1.0000    0     1.008    4.176418   -2.059680   -7.757336
  53 H     1.0000    0     1.008   -3.871619   -2.587008   -7.757507
  54 H     1.0000    0     1.008    1.967891    6.153577   -3.854467
  55 H     1.0000    0     1.008   -3.684209   -5.307131   -3.854476
  56 H     1.0000    0     1.008   -2.753845    5.844197   -3.854568
  57 H     1.0000    0     1.008    4.345375   -4.781012   -3.854305
  58 H     1.0000    0     1.008    6.438313   -0.537181   -3.854302
  59 H     1.0000    0     1.008   -6.313007   -1.372681   -3.854573
  60 H     1.0000    0     1.008    2.276440    1.520748  -10.068475
  61 H     1.0000    0     1.008    3.875884    2.589480   -7.384452
  62 H     1.0000    0     1.008   -4.180424    2.061672   -7.385038
  63 H     1.0000    0     1.008   -2.454588    1.210543  -10.068564

--------------------------------
INTERNAL COORDINATES (ANGSTROEM)
--------------------------------
 C      0   0   0     0.000000000000     0.00000000     0.00000000
 C      1   0   0     2.506159188427     0.00000000     0.00000000
 C      1   2   0     2.516468736928   120.47980033     0.00000000
 C      2   1   3     4.360203420697    75.28951497   283.77948097
 C      1   2   3     2.516468891702    60.13666440   174.71907256
 C      3   1   2     2.520068779502    91.79194712   121.28833103
 C      5   1   2     2.520068762510    91.79201993   236.05607763
 C      6   3   1     2.488818367994   120.26272267   304.19020215
 C      7   5   1     2.513948947453    60.08027955   306.41229827
 C      9   7   5     2.488817352605   120.00002881   109.82545099
 C      7   5   1     2.488816777300   120.26270159    55.80983233
 C      7   5   1     1.555934702164    91.16206225   325.68709313
 C      8   6   3     1.555934051490    89.52038815    91.06561730
 C      6   3   1     1.555934061334    91.16212213    34.31292441
 C      3   1   2     2.947455098613    65.88562638    32.41919378
 C      1   2   3     1.489925410378    35.15414080   323.08151356
 C      2   1   3     1.547529030932    92.09616881   273.73521376
 C      3   1   2     1.543634496635    91.74891424    85.78589532
 C      5   1   2     1.543634474867    91.74900365   271.55851521
 C      4   2   1     1.543634426097    89.43441788    30.89183770
 C      1   2   3     1.501448810645    90.89532351   191.81515950
 C      1   2   3     1.501449345181   148.15946931   329.09681933
 C      4   2   1     1.543633746478    61.29331668   278.87882688
 C     15   3   1     1.489925437942    58.60967733    79.25168919
 C     17   2   1     1.489925476678   111.18022708   326.95804086
 C     16   1   2     1.547528289724   111.18021290   121.75553481
 C     17   2   1     1.547528291932   109.09004221    89.92306831
 N     12   7   5     1.475886138649   111.44049751    93.52608410
 H      2   1   3     1.069990716847    89.79352600   164.26253072
 H      2   1   3     1.070004294789   143.07770564    40.86734301
 H      3   1   2     1.069991509783    89.65616669   336.17389651
 H      3   1   2     1.070008908076   143.45442867   213.40182394
 H      4   2   1     1.070008630315   160.93593846   213.27452148
 H      4   2   1     1.069996784564    63.07524131   143.53512801
 H     29   2   1     0.783506148338   144.53757494    32.14134812
 H      5   1   2     1.070008456810   143.45441154   143.94258784
 H      6   3   1     1.070002931806   144.60622173   267.56155988
 H      6   3   1     1.069998801164    88.85452192   143.28877488
 H      7   5   1     1.070001690631    89.32902229   216.43024000
 H      7   5   1     1.069995564581   144.34073001    91.60649885
 H      8   6   3     1.070002207507   145.14813576   215.49452433
 H     37   6   3     0.744581472567   143.67474244    62.06104370
 H      9   7   5     1.070002897056   145.37732653   145.27378867
 H      9   7   5     1.069998337326    89.16959385   270.84373779
 H     10   9   7     1.070002153157   145.14812963   144.76011292
 H     43   9   7     0.744581167353   143.67473630   300.54055358
 H     40   7   5     0.744581003034   145.51897277   298.58473545
 H     11   7   5     1.069998827641   145.69948105   144.51454587
 H     12   7   5     1.069995472816   109.98972405   211.05044891
 H     13   8   6     1.069995477088   109.98975808    90.79100389
 H     14   6   3     1.069995466059   109.98975815   148.94952879
 H     15   3   1     1.069995021143   100.46116412   182.87308406
 H     16   1   2     1.069995529835   106.99377723   240.87773463
 H     17   2   1     1.069995470441   109.17096217   209.14698710
 H     18   3   1     1.070001083285   109.14081206   209.46733766
 H     19   5   1     1.070001544464   109.14088147   150.53266269
 H     20   4   2     1.070001076044   109.14085337   120.92648834
 H     21   1   2     1.070001584225   106.41034518    92.35939565
 H     22   1   2     1.070001596210   106.41041641   291.94871452
 H     23   4   2     1.070001549478   109.14085333   258.30749265
 H     26  16   1     1.070008557443   109.46621824   177.47400826
 H     31   3   1     0.783365299283   143.60830343    31.99437323
 H     34   4   2     0.787701493973   142.83583393   341.07939137
 H     27  17   2     1.070004297032   109.46009778    59.54970984

---------------------------
INTERNAL COORDINATES (A.U.)
---------------------------
 C      0   0   0     0.000000000000     0.00000000     0.00000000
 C      1   0   0     4.735954514137     0.00000000     0.00000000
 C      1   2   0     4.755436737369   120.47980033     0.00000000
 C      2   1   3     8.239590353305    75.28951497   283.77948097
 C      1   2   3     4.755437029850    60.13666440   174.71907256
 C      3   1   2     4.762239831904    91.79194712   121.28833103
 C      5   1   2     4.762239799795    91.79201993   236.05607763
 C      6   3   1     4.703185112582   120.26272267   304.19020215
 C      7   5   1     4.750675025345    60.08027955   306.41229827
 C      9   7   5     4.703183193774   120.00002881   109.82545099
 C      7   5   1     4.703182106605   120.26270159    55.80983233
 C      7   5   1     2.940290469355    91.16206225   325.68709313
 C      8   6   3     2.940289239759    89.52038815    91.06561730
 C      6   3   1     2.940289258361    91.16212213    34.31292441
 C      3   1   2     5.569882928409    65.88562638    32.41919378
 C      1   2   3     2.815550985585    35.15414080   323.08151356
 C      2   1   3     2.924406052754    92.09616881   273.73521376
 C      3   1   2     2.917046449514    91.74891424    85.78589532
 C      5   1   2     2.917046408379    91.74900365   271.55851521
 C      4   2   1     2.917046316217    89.43441788    30.89183770
 C      1   2   3     2.837327056220    90.89532351   191.81515950
 C      1   2   3     2.837328066347   148.15946931   329.09681933
 C      4   2   1     2.917045031922    61.29331668   278.87882688
 C     15   3   1     2.815551037672    58.60967733    79.25168919
 C     17   2   1     2.815551110873   111.18022708   326.95804086
 C     16   1   2     2.924404652074   111.18021290   121.75553481
 C     17   2   1     2.924404656246   109.09004221    89.92306831
 N     12   7   5     2.789020606897   111.44049751    93.52608410
 H      2   1   3     2.021989420679    89.79352600   164.26253072
 H      2   1   3     2.022015079270   143.07770564    40.86734301
 H      3   1   2     2.021990919112    89.65616669   336.17389651
 H      3   1   2     2.022023797119   143.45442867   213.40182394
 H      4   2   1     2.022023272228   160.93593846   213.27452148
 H      4   2   1     2.022000887002    63.07524131   143.53512801
 H     29   2   1     1.480612044603   144.53757494    32.14134812
 H      5   1   2     2.022022944352   143.45441154   143.94258784
 H      6   3   1     2.022012503606   144.60622173   267.56155988
 H      6   3   1     2.022004697823    88.85452192   143.28877488
 H      7   5   1     2.022010158126    89.32902229   216.43024000
 H      7   5   1     2.021998581568   144.34073001    91.60649885
 H      8   6   3     2.022011134880   145.14813576   215.49452433
 H     37   6   3     1.407055067543   143.67474244    62.06104370
 H      9   7   5     2.022012437938   145.37732653   145.27378867
 H      9   7   5     2.022003821297    89.16959385   270.84373779
 H     10   9   7     2.022011032174   145.14812963   144.76011292
 H     43   9   7     1.407054490773   143.67473630   300.54055358
 H     40   7   5     1.407054180255   145.51897277   298.58473545
 H     11   7   5     2.022004747858   145.69948105   144.51454587
 H     12   7   5     2.021998408159   109.98972405   211.05044891
 H     13   8   6     2.021998416230   109.98975808    90.79100389
 H     14   6   3     2.021998395390   109.98975815   148.94952879
 H     15   3   1     2.021997554619   100.46116412   182.87308406
 H     16   1   2     2.021998515909   106.99377723   240.87773463
 H     17   2   1     2.021998403670   109.17096217   209.14698710
 H     18   3   1     2.022009010407   109.14081206   209.46733766
 H     19   5   1     2.022009881910   109.14088147   150.53266269
 H     20   4   2     2.022008996724   109.14085337   120.92648834
 H     21   1   2     2.022009957048   106.41034518    92.35939565
 H     22   1   2     2.022009979695   106.41041641   291.94871452
 H     23   4   2     2.022009891385   109.14085333   258.30749265
 H     26  16   1     2.022023134520   109.46621824   177.47400826
 H     31   3   1     1.480345878462   143.60830343    31.99437323
 H     34   4   2     1.488540098890   142.83583393   341.07939137
 H     27  17   2     2.022015083509   109.46009778    59.54970984

---------------------
BASIS SET INFORMATION
---------------------
There are 3 groups of distinct atoms

 Group   1 Type C   : 10s5p1d contracted to 6s2p1d pattern {511111/41/1}
 Group   2 Type N   : 10s5p1d contracted to 6s2p1d pattern {511111/41/1}
 Group   3 Type H   : 6s1p contracted to 4s1p pattern {3111/1}

Atom   0C    basis set group =>   1
Atom   1C    basis set group =>   1
Atom   2C    basis set group =>   1
Atom   3C    basis set group =>   1
Atom   4C    basis set group =>   1
Atom   5C    basis set group =>   1
Atom   6C    basis set group =>   1
Atom   7C    basis set group =>   1
Atom   8C    basis set group =>   1
Atom   9C    basis set group =>   1
Atom  10C    basis set group =>   1
Atom  11C    basis set group =>   1
Atom  12C    basis set group =>   1
Atom  13C    basis set group =>   1
Atom  14C    basis set group =>   1
Atom  15C    basis set group =>   1
Atom  16C    basis set group =>   1
Atom  17C    basis set group =>   1
Atom  18C    basis set group =>   1
Atom  19C    basis set group =>   1
Atom  20C    basis set group =>   1
Atom  21C    basis set group =>   1
Atom  22C    basis set group =>   1
Atom  23C    basis set group =>   1
Atom  24C    basis set group =>   1
Atom  25C    basis set group =>   1
Atom  26C    basis set group =>   1
Atom  27N    basis set group =>   2
Atom  28H    basis set group =>   3
Atom  29H    basis set group =>   3
Atom  30H    basis set group =>   3
Atom  31H    basis set group =>   3
Atom  32H    basis set group =>   3
Atom  33H    basis set group =>   3
Atom  34H    basis set group =>   3
Atom  35H    basis set group =>   3
Atom  36H    basis set group =>   3
Atom  37H    basis set group =>   3
Atom  38H    basis set group =>   3
Atom  39H    basis set group =>   3
Atom  40H    basis set group =>   3
Atom  41H    basis set group =>   3
Atom  42H    basis set group =>   3
Atom  43H    basis set group =>   3
Atom  44H    basis set group =>   3
Atom  45H    basis set group =>   3
Atom  46H    basis set group =>   3
Atom  47H    basis set group =>   3
Atom  48H    basis set group =>   3
Atom  49H    basis set group =>   3
Atom  50H    basis set group =>   3
Atom  51H    basis set group =>   3
Atom  52H    basis set group =>   3
Atom  53H    basis set group =>   3
Atom  54H    basis set group =>   3
Atom  55H    basis set group =>   3
Atom  56H    basis set group =>   3
Atom  57H    basis set group =>   3
Atom  58H    basis set group =>   3
Atom  59H    basis set group =>   3
Atom  60H    basis set group =>   3
Atom  61H    basis set group =>   3
Atom  62H    basis set group =>   3
Atom  63H    basis set group =>   3
---------------------------------
AUXILIARY/J BASIS SET INFORMATION
---------------------------------
There are 3 groups of distinct atoms

 Group   1 Type C   : 17s13p12d2f contracted to 17s13p12d2f pattern {11111111111111111/1111111111111/111111111111/11}
 Group   2 Type N   : 17s13p12d2f contracted to 17s13p12d2f pattern {11111111111111111/1111111111111/111111111111/11}
 Group   3 Type H   : 15s6p1d contracted to 15s6p1d pattern {111111111111111/111111/1}

Atom   0C    basis set group =>   1
Atom   1C    basis set group =>   1
Atom   2C    basis set group =>   1
Atom   3C    basis set group =>   1
Atom   4C    basis set group =>   1
Atom   5C    basis set group =>   1
Atom   6C    basis set group =>   1
Atom   7C    basis set group =>   1
Atom   8C    basis set group =>   1
Atom   9C    basis set group =>   1
Atom  10C    basis set group =>   1
Atom  11C    basis set group =>   1
Atom  12C    basis set group =>   1
Atom  13C    basis set group =>   1
Atom  14C    basis set group =>   1
Atom  15C    basis set group =>   1
Atom  16C    basis set group =>   1
Atom  17C    basis set group =>   1
Atom  18C    basis set group =>   1
Atom  19C    basis set group =>   1
Atom  20C    basis set group =>   1
Atom  21C    basis set group =>   1
Atom  22C    basis set group =>   1
Atom  23C    basis set group =>   1
Atom  24C    basis set group =>   1
Atom  25C    basis set group =>   1
Atom  26C    basis set group =>   1
Atom  27N    basis set group =>   2
Atom  28H    basis set group =>   3
Atom  29H    basis set group =>   3
Atom  30H    basis set group =>   3
Atom  31H    basis set group =>   3
Atom  32H    basis set group =>   3
Atom  33H    basis set group =>   3
Atom  34H    basis set group =>   3
Atom  35H    basis set group =>   3
Atom  36H    basis set group =>   3
Atom  37H    basis set group =>   3
Atom  38H    basis set group =>   3
Atom  39H    basis set group =>   3
Atom  40H    basis set group =>   3
Atom  41H    basis set group =>   3
Atom  42H    basis set group =>   3
Atom  43H    basis set group =>   3
Atom  44H    basis set group =>   3
Atom  45H    basis set group =>   3
Atom  46H    basis set group =>   3
Atom  47H    basis set group =>   3
Atom  48H    basis set group =>   3
Atom  49H    basis set group =>   3
Atom  50H    basis set group =>   3
Atom  51H    basis set group =>   3
Atom  52H    basis set group =>   3
Atom  53H    basis set group =>   3
Atom  54H    basis set group =>   3
Atom  55H    basis set group =>   3
Atom  56H    basis set group =>   3
Atom  57H    basis set group =>   3
Atom  58H    basis set group =>   3
Atom  59H    basis set group =>   3
Atom  60H    basis set group =>   3
Atom  61H    basis set group =>   3
Atom  62H    basis set group =>   3
Atom  63H    basis set group =>   3
---------------------------------
AUXILIARY/C BASIS SET INFORMATION
---------------------------------
There are 3 groups of distinct atoms

 Group   1 Type C   : 17s13p12d2f contracted to 17s13p12d2f pattern {11111111111111111/1111111111111/111111111111/11}
 Group   2 Type N   : 17s13p12d2f contracted to 17s13p12d2f pattern {11111111111111111/1111111111111/111111111111/11}
 Group   3 Type H   : 15s6p1d contracted to 15s6p1d pattern {111111111111111/111111/1}

Atom   0C    basis set group =>   1
Atom   1C    basis set group =>   1
Atom   2C    basis set group =>   1
Atom   3C    basis set group =>   1
Atom   4C    basis set group =>   1
Atom   5C    basis set group =>   1
Atom   6C    basis set group =>   1
Atom   7C    basis set group =>   1
Atom   8C    basis set group =>   1
Atom   9C    basis set group =>   1
Atom  10C    basis set group =>   1
Atom  11C    basis set group =>   1
Atom  12C    basis set group =>   1
Atom  13C    basis set group =>   1
Atom  14C    basis set group =>   1
Atom  15C    basis set group =>   1
Atom  16C    basis set group =>   1
Atom  17C    basis set group =>   1
Atom  18C    basis set group =>   1
Atom  19C    basis set group =>   1
Atom  20C    basis set group =>   1
Atom  21C    basis set group =>   1
Atom  22C    basis set group =>   1
Atom  23C    basis set group =>   1
Atom  24C    basis set group =>   1
Atom  25C    basis set group =>   1
Atom  26C    basis set group =>   1
Atom  27N    basis set group =>   2
Atom  28H    basis set group =>   3
Atom  29H    basis set group =>   3
Atom  30H    basis set group =>   3
Atom  31H    basis set group =>   3
Atom  32H    basis set group =>   3
Atom  33H    basis set group =>   3
Atom  34H    basis set group =>   3
Atom  35H    basis set group =>   3
Atom  36H    basis set group =>   3
Atom  37H    basis set group =>   3
Atom  38H    basis set group =>   3
Atom  39H    basis set group =>   3
Atom  40H    basis set group =>   3
Atom  41H    basis set group =>   3
Atom  42H    basis set group =>   3
Atom  43H    basis set group =>   3
Atom  44H    basis set group =>   3
Atom  45H    basis set group =>   3
Atom  46H    basis set group =>   3
Atom  47H    basis set group =>   3
Atom  48H    basis set group =>   3
Atom  49H    basis set group =>   3
Atom  50H    basis set group =>   3
Atom  51H    basis set group =>   3
Atom  52H    basis set group =>   3
Atom  53H    basis set group =>   3
Atom  54H    basis set group =>   3
Atom  55H    basis set group =>   3
Atom  56H    basis set group =>   3
Atom  57H    basis set group =>   3
Atom  58H    basis set group =>   3
Atom  59H    basis set group =>   3
Atom  60H    basis set group =>   3
Atom  61H    basis set group =>   3
Atom  62H    basis set group =>   3
Atom  63H    basis set group =>   3
----------------------------------
AUXILIARY/JK BASIS SET INFORMATION
----------------------------------
There are 3 groups of distinct atoms

 Group   1 Type C   : 17s13p12d2f contracted to 17s13p12d2f pattern {11111111111111111/1111111111111/111111111111/11}
 Group   2 Type N   : 17s13p12d2f contracted to 17s13p12d2f pattern {11111111111111111/1111111111111/111111111111/11}
 Group   3 Type H   : 15s6p1d contracted to 15s6p1d pattern {111111111111111/111111/1}

Atom   0C    basis set group =>   1
Atom   1C    basis set group =>   1
Atom   2C    basis set group =>   1
Atom   3C    basis set group =>   1
Atom   4C    basis set group =>   1
Atom   5C    basis set group =>   1
Atom   6C    basis set group =>   1
Atom   7C    basis set group =>   1
Atom   8C    basis set group =>   1
Atom   9C    basis set group =>   1
Atom  10C    basis set group =>   1
Atom  11C    basis set group =>   1
Atom  12C    basis set group =>   1
Atom  13C    basis set group =>   1
Atom  14C    basis set group =>   1
Atom  15C    basis set group =>   1
Atom  16C    basis set group =>   1
Atom  17C    basis set group =>   1
Atom  18C    basis set group =>   1
Atom  19C    basis set group =>   1
Atom  20C    basis set group =>   1
Atom  21C    basis set group =>   1
Atom  22C    basis set group =>   1
Atom  23C    basis set group =>   1
Atom  24C    basis set group =>   1
Atom  25C    basis set group =>   1
Atom  26C    basis set group =>   1
Atom  27N    basis set group =>   2
Atom  28H    basis set group =>   3
Atom  29H    basis set group =>   3
Atom  30H    basis set group =>   3
Atom  31H    basis set group =>   3
Atom  32H    basis set group =>   3
Atom  33H    basis set group =>   3
Atom  34H    basis set group =>   3
Atom  35H    basis set group =>   3
Atom  36H    basis set group =>   3
Atom  37H    basis set group =>   3
Atom  38H    basis set group =>   3
Atom  39H    basis set group =>   3
Atom  40H    basis set group =>   3
Atom  41H    basis set group =>   3
Atom  42H    basis set group =>   3
Atom  43H    basis set group =>   3
Atom  44H    basis set group =>   3
Atom  45H    basis set group =>   3
Atom  46H    basis set group =>   3
Atom  47H    basis set group =>   3
Atom  48H    basis set group =>   3
Atom  49H    basis set group =>   3
Atom  50H    basis set group =>   3
Atom  51H    basis set group =>   3
Atom  52H    basis set group =>   3
Atom  53H    basis set group =>   3
Atom  54H    basis set group =>   3
Atom  55H    basis set group =>   3
Atom  56H    basis set group =>   3
Atom  57H    basis set group =>   3
Atom  58H    basis set group =>   3
Atom  59H    basis set group =>   3
Atom  60H    basis set group =>   3
Atom  61H    basis set group =>   3
Atom  62H    basis set group =>   3
Atom  63H    basis set group =>   3


           ************************************************************
           *        Program running with 72 parallel MPI-processes    *
           *              working on a shared directory               *
           ************************************************************
------------------------------------------------------------------------------
                           ORCA GTO INTEGRAL CALCULATION
                           -- RI-GTO INTEGRALS CHOSEN --
------------------------------------------------------------------------------

                         BASIS SET STATISTICS AND STARTUP INFO

Gaussian basis set:
 # of primitive gaussian shells          ...  700
 # of primitive gaussian functions       ... 1164
 # of contracted shells                  ...  432
 # of contracted basis functions         ...  728
 Highest angular momentum                ...    2
 Maximum contraction depth               ...    5
Auxiliary gaussian basis set:
 # of primitive gaussian shells          ... 2024
 # of primitive gaussian functions       ... 5008
 # of contracted shells                  ... 2024
 # of contracted aux-basis functions     ... 5008
 Highest angular momentum                ...    3
 Maximum contraction depth               ...    1
Ratio of auxiliary to basis functions    ...  6.88
Integral package used                  ... LIBINT
 One Electron integrals                  ... done
 Ordering auxiliary basis shells         ... done
 Integral threshhold             Thresh  ...  1.000e-10
 Primitive cut-off               TCut    ...  1.000e-11
 Pre-screening matrix                    ... done
 Shell pair data                         ... 
 Ordering of the shell pairs             ... done (   0.016 sec) 66493 of 93528 pairs
 Determination of significant pairs      ... done (   0.000 sec)
 Creation of shell pair data             ... done (   0.011 sec)
 Storage of shell pair data              ... done (   0.157 sec)
 Shell pair data done in (   0.184 sec)
 Computing two index integrals           ... done
 Cholesky decomposition of the V-matrix  ... done


Timings:
 Total evaluation time                   ...   4.972 sec (  0.083 min)
 One electron matrix time                ...   0.851 sec (  0.014 min) = 17.1%
 Schwartz matrix evaluation time         ...   0.379 sec (  0.006 min) =  7.6%
 Two index repulsion integral time       ...   1.086 sec (  0.018 min) = 21.8%
 Cholesky decomposition of V             ...   2.296 sec (  0.038 min) = 46.2%
 Three index repulsion integral time     ...   0.000 sec (  0.000 min) =  0.0%



           ************************************************************
           *        Program running with 72 parallel MPI-processes    *
           *              working on a shared directory               *
           ************************************************************
-------------------------------------------------------------------------------
                                 ORCA SCF
-------------------------------------------------------------------------------

------------
SCF SETTINGS
------------
Hamiltonian:
 Density Functional     Method          .... DFT(GTOs)
 Exchange Functional    Exchange        .... PBE
   PBE kappa parameter   XKappa         ....  0.804000
   PBE mue parameter    XMuePBE         ....  0.219520
 Correlation Functional Correlation     .... PBE
   PBE beta parameter  CBetaPBE         ....  0.066725
 LDA part of GGA corr.  LDAOpt          .... PW91-LDA
 Gradients option       PostSCFGGA      .... off
   Density functional embedding theory  .... OFF
   NL short-range parameter             ....  6.400000
 RI-approximation to the Coulomb term is turned on
   Number of auxiliary basis functions  .... 5008
   RIJ-COSX (HFX calculated with COS-X)).... on


General Settings:
 Integral files         IntName         .... zfs
 Hartree-Fock type      HFTyp           .... UHF
 Total Charge           Charge          ....   -1
 Multiplicity           Mult            ....    3
 Number of Electrons    NEL             ....  206
 Basis Dimension        Dim             ....  728
 Nuclear Repulsion      ENuc            ....   3308.0184381462 Eh

Convergence Acceleration:
 DIIS                   CNVDIIS         .... on
   Start iteration      DIISMaxIt       ....    12
   Startup error        DIISStart       ....  0.200000
   # of expansion vecs  DIISMaxEq       ....     5
   Bias factor          DIISBfac        ....   1.050
   Max. coefficient     DIISMaxC        ....  10.000
 Newton-Raphson         CNVNR           .... off
 SOSCF                  CNVSOSCF        .... off
 Level Shifting         CNVShift        .... on
   Level shift para.    LevelShift      ....    0.2500
   Turn off err/grad.   ShiftErr        ....    0.0010
 Zerner damping         CNVZerner       .... off
 Static damping         CNVDamp         .... on
   Fraction old density DampFac         ....    0.7000
   Max. Damping (<1)    DampMax         ....    0.9800
   Min. Damping (>=0)   DampMin         ....    0.0000
   Turn off err/grad.   DampErr         ....    0.1000
 Fernandez-Rico         CNVRico         .... off

SCF Procedure:
 Maximum # iterations   MaxIter         ....   125
 SCF integral mode      SCFMode         .... Direct
   Integral package                     .... LIBINT
 Reset frequency        DirectResetFreq ....    20
 Integral Threshold     Thresh          ....  1.000e-10 Eh
 Primitive CutOff       TCut            ....  1.000e-11 Eh

Convergence Tolerance:
 Convergence Check Mode ConvCheckMode   .... Total+1el-Energy
 Convergence forced     ConvForced      .... 0
 Energy Change          TolE            ....  1.000e-06 Eh
 1-El. energy change                    ....  1.000e-03 Eh
 DIIS Error             TolErr          ....  1.000e-06


Diagonalization of the overlap matrix:
Smallest eigenvalue                        ... 1.744e-04
Time for diagonalization                   ...    0.241 sec
Threshold for overlap eigenvalues          ... 1.000e-08
Number of eigenvalues below threshold      ... 0
Time for construction of square roots      ...    0.565 sec
Total time needed                          ...    0.810 sec

-------------------
DFT GRID GENERATION
-------------------

General Integration Accuracy     IntAcc      ...  4.340
Radial Grid Type                 RadialGrid  ... Gauss-Chebyshev
Angular Grid (max. acc.)         AngularGrid ... Lebedev-110
Angular grid pruning method      GridPruning ... 3 (G Style)
Weight generation scheme         WeightScheme... Becke
Basis function cutoff            BFCut       ...    1.0000e-10
Integration weight cutoff        WCut        ...    1.0000e-14
Grids for H and He will be reduced by one unit

# of grid points (after initial pruning)     ...  74998 (   0.0 sec)
# of grid points (after weights+screening)   ...  62527 (   0.1 sec)
nearest neighbour list constructed           ...    0.0 sec
Grid point re-assignment to atoms done       ...    0.0 sec
Grid point division into batches done        ...    0.0 sec
Reduced shell lists constructed in    0.1 sec

Total number of grid points                  ...    62527
Total number of batches                      ...     1009
Average number of points per batch           ...       61
Average number of grid points per atom       ...      977
Average number of shells per batch           ...   226.25 (52.37%)
Average number of basis functions per batch  ...   453.75 (62.33%)
Average number of large shells per batch     ...   170.50 (75.36%)
Average number of large basis fcns per batch ...   340.00 (74.93%)
Maximum spatial batch extension              ...   2.33,  2.27,  2.35 au
Average spatial batch extension              ...   0.03,  0.03,  0.03 au

Time for grid setup =    0.860 sec

------------------------------
INITIAL GUESS: MODEL POTENTIAL
------------------------------
Loading Hartree-Fock densities                     ... done
Calculating cut-offs                               ... done
Setting up the integral package                    ... done
Initializing the effective Hamiltonian             ... done
Starting the Coulomb interaction                   ... done (   0.2 sec)
Reading the grid                                   ... done
Mapping shells                                     ... done
Starting the XC term evaluation                    ... done (   0.1 sec)
  promolecular density results
     # of electrons  =    204.966298957
     EX              =   -156.125281424
     EC              =     -7.166462082
     EX+EC           =   -163.291743506
Transforming the Hamiltonian                       ... done (   0.1 sec)
Diagonalizing the Hamiltonian                      ... done (   0.1 sec)
Back transforming the eigenvectors                 ... done (   0.1 sec)
Now organizing SCF variables                       ... done
                      ------------------
                      INITIAL GUESS DONE (   1.7 sec)
                      ------------------
--------------------
COSX GRID GENERATION
--------------------

General Integration Accuracy     IntAcc      ...  3.340
Radial Grid Type                 RadialGrid  ... Gauss-Chebyshev
Angular Grid (max. acc.)         AngularGrid ... Lebedev-50
Angular grid pruning method      GridPruning ... 3 (G Style)
Weight generation scheme         WeightScheme... Becke
Basis function cutoff            BFCut       ...    1.0000e-10
Integration weight cutoff        WCut        ...    1.0000e-14
Grids for H and He will be reduced by one unit

# of grid points (after initial pruning)     ...  27746 (   0.0 sec)
# of grid points (after weights+screening)   ...  23445 (   0.0 sec)
nearest neighbour list constructed           ...    0.0 sec
Grid point re-assignment to atoms done       ...    0.0 sec
Grid point division into batches done        ...    0.0 sec
Reduced shell lists constructed in    0.0 sec

Total number of grid points                  ...    23445
Total number of batches                      ...      393
Average number of points per batch           ...       59
Average number of grid points per atom       ...      366
Average number of shells per batch           ...   220.14 (50.96%)
Average number of basis functions per batch  ...   441.29 (60.62%)
Average number of large shells per batch     ...   165.43 (75.15%)
Average number of large basis fcns per batch ...   331.43 (75.11%)
Maximum spatial batch extension              ...   3.16,  3.00,  2.98 au
Average spatial batch extension              ...   0.04,  0.03,  0.03 au

Overlap Fitting                  UseSFitting ... on
Constructing numerical overlap ... done (      0.0 sec)
Inverting numerical overlap    ... done (      0.0 sec)
Obtaining analytic overlap     ... done (      0.0 sec)
Final contraction and storage  ... done (      0.2 sec)


General Integration Accuracy     IntAcc      ...  3.670
Radial Grid Type                 RadialGrid  ... Gauss-Chebyshev
Angular Grid (max. acc.)         AngularGrid ... Lebedev-50
Angular grid pruning method      GridPruning ... 3 (G Style)
Weight generation scheme         WeightScheme... Becke
Basis function cutoff            BFCut       ...    1.0000e-10
Integration weight cutoff        WCut        ...    1.0000e-14
Grids for H and He will be reduced by one unit

# of grid points (after initial pruning)     ...  35464 (   0.0 sec)
# of grid points (after weights+screening)   ...  29887 (   0.0 sec)
nearest neighbour list constructed           ...    0.0 sec
Grid point re-assignment to atoms done       ...    0.0 sec
Grid point division into batches done        ...    0.0 sec
Reduced shell lists constructed in    0.0 sec

Total number of grid points                  ...    29887
Total number of batches                      ...      502
Average number of points per batch           ...       59
Average number of grid points per atom       ...      467
Average number of shells per batch           ...   223.88 (51.82%)
Average number of basis functions per batch  ...   447.88 (61.52%)
Average number of large shells per batch     ...   167.25 (74.71%)
Average number of large basis fcns per batch ...   336.25 (75.08%)
Maximum spatial batch extension              ...   2.89,  2.96,  2.79 au
Average spatial batch extension              ...   0.03,  0.03,  0.03 au

Overlap Fitting                  UseSFitting ... on
Constructing numerical overlap ... done (      0.0 sec)
Inverting numerical overlap    ... done (      0.0 sec)
Obtaining analytic overlap     ... done (      0.0 sec)
Final contraction and storage  ... done (      0.1 sec)


General Integration Accuracy     IntAcc      ...  4.010
Radial Grid Type                 RadialGrid  ... Gauss-Chebyshev
Angular Grid (max. acc.)         AngularGrid ... Lebedev-110
Angular grid pruning method      GridPruning ... 3 (G Style)
Weight generation scheme         WeightScheme... Becke
Basis function cutoff            BFCut       ...    1.0000e-10
Integration weight cutoff        WCut        ...    1.0000e-14
Grids for H and He will be reduced by one unit

# of grid points (after initial pruning)     ...  65152 (   0.0 sec)
# of grid points (after weights+screening)   ...  54602 (   0.1 sec)
nearest neighbour list constructed           ...    0.0 sec
Grid point re-assignment to atoms done       ...    0.0 sec
Grid point division into batches done        ...    0.0 sec
Reduced shell lists constructed in    0.1 sec

Total number of grid points                  ...    54602
Total number of batches                      ...      885
Average number of points per batch           ...       61
Average number of grid points per atom       ...      853
Average number of shells per batch           ...   227.14 (52.58%)
Average number of basis functions per batch  ...   456.29 (62.68%)
Average number of large shells per batch     ...   168.79 (74.31%)
Average number of large basis fcns per batch ...   336.64 (73.78%)
Maximum spatial batch extension              ...   2.23,  2.66,  2.18 au
Average spatial batch extension              ...   0.03,  0.03,  0.03 au

Overlap Fitting                  UseSFitting ... on
Constructing numerical overlap ... done (      0.1 sec)
Inverting numerical overlap    ... done (      0.0 sec)
Obtaining analytic overlap     ... done (      0.0 sec)
Final contraction and storage  ... done (      0.1 sec)

Time for X-Grid setup             =    2.284 sec
--------------
SCF ITERATIONS
--------------
ITER       Energy         Delta-E        Max-DP      RMS-DP      [F,P]     Damp
               ***  Starting incremental Fock matrix formation  ***
  0  -1102.3545261451   0.000000000000 7.78102438  0.02040907  0.1511989 0.7000
  1  -1102.7797702624  -0.425244117227 4.86866998  0.01272246  0.0656725 0.7000
                               ***Turning on DIIS***
  2  -1102.8698508804  -0.090080617979 0.76418069  0.00358015  0.0352234 0.0000
  3  -1103.1232915251  -0.253440644766 4.47723208  0.01131990  0.0323404 0.0000
  4  -1103.1565157753  -0.033224250224 1.44445279  0.00364809  0.0198659 0.0000
  5  -1103.1658706083  -0.009354832968 0.64179162  0.00160408  0.0058027 0.0000
  6  -1103.1672119711  -0.001341362838 0.43196397  0.00108087  0.0014155 0.0000
  7  -1103.1674188406  -0.000206869475 0.25969527  0.00064008  0.0023950 0.0000
  8  -1103.1675238058  -0.000104965189 0.53905489  0.00131965  0.0005476 0.0000
  9  -1103.1675907051  -0.000066899310 0.09734447  0.00028940  0.0008077 0.0000
 10  -1103.1675971743  -0.000006469192 0.08513157  0.00022568  0.0005262 0.0000
 11  -1103.1676019294  -0.000004755047 0.02521402  0.00006694  0.0003611 0.0000
 12  -1103.1676039279  -0.000001998579 0.00727817  0.00001766  0.0000655 0.0000
 13  -1103.1676038420   0.000000085964 0.00618811  0.00001101  0.0000836 0.0000
                 **** Energy Check signals convergence ****

               *****************************************************
               *                     SUCCESS                       *
               *           SCF CONVERGED AFTER  14 CYCLES          *
               *****************************************************

Setting up the final grid:

General Integration Accuracy     IntAcc      ...  4.670
Radial Grid Type                 RadialGrid  ... Gauss-Chebyshev
Angular Grid (max. acc.)         AngularGrid ... Lebedev-302
Angular grid pruning method      GridPruning ... 3 (G Style)
Weight generation scheme         WeightScheme... Becke
Basis function cutoff            BFCut       ...    1.0000e-10
Integration weight cutoff        WCut        ...    1.0000e-14
Grids for H and He will be reduced by one unit

# of grid points (after initial pruning)     ... 296120 (   0.0 sec)
# of grid points (after weights+screening)   ... 239141 (   0.2 sec)
nearest neighbour list constructed           ...    0.0 sec
Grid point re-assignment to atoms done       ...    0.1 sec
Grid point division into batches done        ...    0.8 sec
Reduced shell lists constructed in    1.0 sec

Total number of grid points                  ...   239141
Total number of batches                      ...     3771
Average number of points per batch           ...       63
Average number of grid points per atom       ...     3737
Average number of shells per batch           ...   226.44 (52.42%)
Average number of basis functions per batch  ...   455.33 (62.55%)
Average number of large shells per batch     ...   167.57 (74.00%)
Average number of large basis fcns per batch ...   331.31 (72.76%)
Maximum spatial batch extension              ...   1.79,  1.84,  1.84 au
Average spatial batch extension              ...   0.02,  0.02,  0.02 au

Final grid set up in    1.3 sec
Final integration                            ... done (   0.9 sec)
Change in XC energy                          ...    -0.000433358
Integrated number of electrons               ...   206.000860876
Previous integrated no of electrons          ...   205.996603346

----------------
TOTAL SCF ENERGY
----------------

Total Energy       :        -1103.16803731 Eh          -30018.72842 eV

Components:
Nuclear Repulsion  :         3308.01843815 Eh           90015.75801 eV
Electronic Energy  :        -4411.18647546 Eh         -120034.48643 eV
One Electron Energy:        -8103.22222438 Eh         -220499.88672 eV
Two Electron Energy:         3692.03574892 Eh          100465.40029 eV

Virial components:
Potential Energy   :        -2203.46236910 Eh          -59959.25933 eV
Kinetic Energy     :         1100.29433179 Eh           29940.53092 eV
Virial Ratio       :            2.00261176


DFT components:
N(Alpha)           :      104.000488902431 electrons
N(Beta)            :      102.000371973476 electrons
N(Total)           :      206.000860875907 electrons
E(X)               :     -159.757875128873 Eh       
E(C)               :       -7.076895348796 Eh       
E(XC)              :     -166.834770477670 Eh       
DFET-embed. en.    :        0.000000000000 Eh       

---------------
SCF CONVERGENCE
---------------

  Last Energy change         ...   -1.1034e-07  Tolerance :   1.0000e-06
  Last MAX-Density change    ...    8.2341e-04  Tolerance :   1.0000e-05
  Last RMS-Density change    ...    1.8200e-06  Tolerance :   1.0000e-06
  Last DIIS Error            ...    3.0248e-05  Tolerance :   1.0000e-06

             **** THE GBW FILE WAS UPDATED (zfs.gbw) ****
             **** DENSITY FILE WAS UPDATED (zfs.scfp) ****
             **** ENERGY FILE WAS UPDATED (zfs.en.tmp) ****
----------------------
UHF SPIN CONTAMINATION
----------------------

Warning: in a DFT calculation there is little theoretical justification to 
         calculate <S**2> as in Hartree-Fock theory. We will do it anyways
         but you should keep in mind that the values have only limited relevance

Expectation value of <S**2>     :     2.011141
Ideal value S*(S+1) for S=1.0   :     2.000000
Deviation                       :     0.011141

             **** THE GBW FILE WAS UPDATED (zfs.gbw) ****
             **** DENSITY FILE WAS UPDATED (zfs.scfp) ****
----------------
ORBITAL ENERGIES
----------------
                 SPIN UP ORBITALS
  NO   OCC          E(Eh)            E(eV) 
   0   1.0000     -13.855726      -377.0335 
   1   1.0000      -9.801442      -266.7108 
   2   1.0000      -9.801160      -266.7031 
   3   1.0000      -9.801062      -266.7004 
   4   1.0000      -9.762835      -265.6602 
   5   1.0000      -9.762775      -265.6586 
   6   1.0000      -9.762754      -265.6580 
   7   1.0000      -9.762704      -265.6567 
   8   1.0000      -9.762517      -265.6516 
   9   1.0000      -9.762479      -265.6506 
  10   1.0000      -9.755732      -265.4670 
  11   1.0000      -9.755500      -265.4606 
  12   1.0000      -9.755386      -265.4575 
  13   1.0000      -9.749241      -265.2903 
  14   1.0000      -9.749072      -265.2857 
  15   1.0000      -9.748593      -265.2727 
  16   1.0000      -9.748438      -265.2685 
  17   1.0000      -9.748408      -265.2677 
  18   1.0000      -9.748196      -265.2619 
  19   1.0000      -9.740071      -265.0408 
  20   1.0000      -9.739537      -265.0263 
  21   1.0000      -9.739081      -265.0139 
  22   1.0000      -9.735676      -264.9212 
  23   1.0000      -9.735374      -264.9130 
  24   1.0000      -9.735366      -264.9128 
  25   1.0000      -9.734621      -264.8925 
  26   1.0000      -9.734320      -264.8843 
  27   1.0000      -9.734113      -264.8787 
  28   1.0000      -0.729693       -19.8559 
  29   1.0000      -0.667410       -18.1612 
  30   1.0000      -0.652354       -17.7515 
  31   1.0000      -0.652235       -17.7482 
  32   1.0000      -0.609349       -16.5812 
  33   1.0000      -0.598155       -16.2766 
  34   1.0000      -0.598065       -16.2742 
  35   1.0000      -0.582443       -15.8491 
  36   1.0000      -0.582326       -15.8459 
  37   1.0000      -0.545776       -14.8513 
  38   1.0000      -0.521594       -14.1933 
  39   1.0000      -0.521501       -14.1908 
  40   1.0000      -0.518955       -14.1215 
  41   1.0000      -0.515926       -14.0391 
  42   1.0000      -0.515732       -14.0338 
  43   1.0000      -0.501955       -13.6589 
  44   1.0000      -0.444677       -12.1003 
  45   1.0000      -0.444615       -12.0986 
  46   1.0000      -0.423888       -11.5346 
  47   1.0000      -0.405295       -11.0286 
  48   1.0000      -0.405262       -11.0277 
  49   1.0000      -0.400255       -10.8915 
  50   1.0000      -0.397485       -10.8161 
  51   1.0000      -0.384054       -10.4506 
  52   1.0000      -0.383934       -10.4474 
  53   1.0000      -0.358433        -9.7535 
  54   1.0000      -0.357955        -9.7404 
  55   1.0000      -0.357866        -9.7380 
  56   1.0000      -0.346435        -9.4270 
  57   1.0000      -0.312914        -8.5148 
  58   1.0000      -0.308951        -8.4070 
  59   1.0000      -0.308909        -8.4058 
  60   1.0000      -0.301334        -8.1997 
  61   1.0000      -0.301195        -8.1959 
  62   1.0000      -0.282097        -7.6762 
  63   1.0000      -0.279251        -7.5988 
  64   1.0000      -0.279215        -7.5978 
  65   1.0000      -0.275618        -7.4999 
  66   1.0000      -0.275573        -7.4987 
  67   1.0000      -0.242659        -6.6031 
  68   1.0000      -0.242565        -6.6005 
  69   1.0000      -0.238260        -6.4834 
  70   1.0000      -0.231021        -6.2864 
  71   1.0000      -0.228427        -6.2158 
  72   1.0000      -0.226281        -6.1574 
  73   1.0000      -0.226211        -6.1555 
  74   1.0000      -0.212422        -5.7803 
  75   1.0000      -0.212410        -5.7800 
  76   1.0000      -0.210104        -5.7172 
  77   1.0000      -0.197012        -5.3610 
  78   1.0000      -0.190610        -5.1868 
  79   1.0000      -0.190586        -5.1861 
  80   1.0000      -0.179324        -4.8797 
  81   1.0000      -0.179283        -4.8785 
  82   1.0000      -0.171379        -4.6635 
  83   1.0000      -0.166775        -4.5382 
  84   1.0000      -0.166711        -4.5364 
  85   1.0000      -0.161155        -4.3852 
  86   1.0000      -0.158650        -4.3171 
  87   1.0000      -0.156253        -4.2519 
  88   1.0000      -0.156174        -4.2497 
  89   1.0000      -0.146908        -3.9976 
  90   1.0000      -0.146900        -3.9974 
  91   1.0000      -0.135096        -3.6761 
  92   1.0000      -0.119912        -3.2630 
  93   1.0000      -0.119869        -3.2618 
  94   1.0000      -0.095625        -2.6021 
  95   1.0000      -0.095551        -2.6001 
  96   1.0000      -0.092613        -2.5201 
  97   1.0000      -0.077023        -2.0959 
  98   1.0000      -0.059109        -1.6085 
  99   1.0000      -0.056876        -1.5477 
 100   1.0000      -0.056500        -1.5374 
 101   1.0000       0.002084         0.0567 
 102   1.0000       0.047393         1.2896 
 103   1.0000       0.047548         1.2939 
 104   0.0000       0.096971         2.6387 
 105   0.0000       0.113801         3.0967 
 106   0.0000       0.116304         3.1648 
 107   0.0000       0.117293         3.1917 
 108   0.0000       0.124684         3.3928 
 109   0.0000       0.125133         3.4050 
 110   0.0000       0.126545         3.4435 
 111   0.0000       0.130599         3.5538 
 112   0.0000       0.131471         3.5775 
 113   0.0000       0.140848         3.8327 
 114   0.0000       0.142905         3.8886 
 115   0.0000       0.143758         3.9119 
 116   0.0000       0.150427         4.0933 
 117   0.0000       0.151473         4.1218 
 118   0.0000       0.153021         4.1639 
 119   0.0000       0.155452         4.2301 
 120   0.0000       0.179239         4.8773 
 121   0.0000       0.180122         4.9014 
 122   0.0000       0.184022         5.0075 
 123   0.0000       0.184762         5.0276 
 124   0.0000       0.185079         5.0363 
 125   0.0000       0.185654         5.0519 
 126   0.0000       0.193484         5.2650 
 127   0.0000       0.194066         5.2808 
 128   0.0000       0.195959         5.3323 
 129   0.0000       0.228177         6.2090 
 130   0.0000       0.228366         6.2142 
 131   0.0000       0.230112         6.2617 
 132   0.0000       0.239521         6.5177 
 133   0.0000       0.246513         6.7080 
 134   0.0000       0.250018         6.8033 
 135   0.0000       0.250233         6.8092 
 136   0.0000       0.252074         6.8593 
 137   0.0000       0.252392         6.8679 
 138   0.0000       0.275126         7.4866 
 139   0.0000       0.276839         7.5332 
 140   0.0000       0.277330         7.5465 
 141   0.0000       0.283504         7.7145 
 142   0.0000       0.284192         7.7333 
 143   0.0000       0.292130         7.9493 
 144   0.0000       0.292870         7.9694 
 145   0.0000       0.293181         7.9779 
 146   0.0000       0.296602         8.0710 
 147   0.0000       0.297231         8.0881 
 148   0.0000       0.297879         8.1057 
 149   0.0000       0.299362         8.1461 
 150   0.0000       0.308357         8.3908 
 151   0.0000       0.308650         8.3988 
 152   0.0000       0.310813         8.4577 
 153   0.0000       0.312046         8.4912 
 154   0.0000       0.314178         8.5492 
 155   0.0000       0.327586         8.9141 
 156   0.0000       0.331944         9.0327 
 157   0.0000       0.332255         9.0411 
 158   0.0000       0.340906         9.2765 
 159   0.0000       0.343755         9.3540 
 160   0.0000       0.344059         9.3623 
 161   0.0000       0.354909         9.6576 
 162   0.0000       0.355664         9.6781 
 163   0.0000       0.356992         9.7142 
 164   0.0000       0.366299         9.9675 
 165   0.0000       0.372451        10.1349 
 166   0.0000       0.373123        10.1532 
 167   0.0000       0.374089        10.1795 
 168   0.0000       0.381961        10.3937 
 169   0.0000       0.382196        10.4001 
 170   0.0000       0.382871        10.4184 
 171   0.0000       0.389029        10.5860 
 172   0.0000       0.389696        10.6042 
 173   0.0000       0.390160        10.6168 
 174   0.0000       0.393148        10.6981 
 175   0.0000       0.393339        10.7033 
 176   0.0000       0.394415        10.7326 
 177   0.0000       0.397705        10.8221 
 178   0.0000       0.397835        10.8256 
 179   0.0000       0.410905        11.1813 
 180   0.0000       0.411657        11.2017 
 181   0.0000       0.413597        11.2546 
 182   0.0000       0.427385        11.6297 
 183   0.0000       0.428232        11.6528 
 184   0.0000       0.428389        11.6571 
 185   0.0000       0.428996        11.6736 
 186   0.0000       0.429193        11.6789 
 187   0.0000       0.431700        11.7471 
 188   0.0000       0.433308        11.7909 
 189   0.0000       0.433384        11.7930 
 190   0.0000       0.437014        11.8918 
 191   0.0000       0.437960        11.9175 
 192   0.0000       0.438648        11.9362 
 193   0.0000       0.451115        12.2755 
 194   0.0000       0.460743        12.5374 
 195   0.0000       0.461176        12.5492 
 196   0.0000       0.467291        12.7156 
 197   0.0000       0.470817        12.8116 
 198   0.0000       0.472185        12.8488 
 199   0.0000       0.473012        12.8713 
 200   0.0000       0.482258        13.1229 
 201   0.0000       0.483228        13.1493 
 202   0.0000       0.498707        13.5705 
 203   0.0000       0.507840        13.8190 
 204   0.0000       0.509597        13.8669 
 205   0.0000       0.510864        13.9013 
 206   0.0000       0.515321        14.0226 
 207   0.0000       0.516933        14.0665 
 208   0.0000       0.527380        14.3507 
 209   0.0000       0.534378        14.5412 
 210   0.0000       0.536080        14.5875 
 211   0.0000       0.537808        14.6345 
 212   0.0000       0.541901        14.7459 
 213   0.0000       0.546691        14.8762 
 214   0.0000       0.548418        14.9232 
 215   0.0000       0.551181        14.9984 
 216   0.0000       0.558143        15.1878 
 217   0.0000       0.558747        15.2043 
 218   0.0000       0.559186        15.2162 
 219   0.0000       0.575280        15.6542 
 220   0.0000       0.579332        15.7644 
 221   0.0000       0.581243        15.8164 
 222   0.0000       0.590127        16.0582 
 223   0.0000       0.591080        16.0841 
 224   0.0000       0.600471        16.3397 
 225   0.0000       0.603052        16.4099 
 226   0.0000       0.604941        16.4613 
 227   0.0000       0.608008        16.5447 
 228   0.0000       0.615916        16.7599 
 229   0.0000       0.618592        16.8327 
 230   0.0000       0.619341        16.8531 
 231   0.0000       0.619991        16.8708 
 232   0.0000       0.621891        16.9225 
 233   0.0000       0.623505        16.9664 
 234   0.0000       0.624594        16.9961 
 235   0.0000       0.625206        17.0127 
 236   0.0000       0.634225        17.2581 
 237   0.0000       0.644779        17.5453 
 238   0.0000       0.645040        17.5524 
 239   0.0000       0.646874        17.6023 
 240   0.0000       0.657618        17.8947 
 241   0.0000       0.658167        17.9096 
 242   0.0000       0.664350        18.0779 
 243   0.0000       0.679034        18.4775 
 244   0.0000       0.697110        18.9693 
 245   0.0000       0.698924        19.0187 
 246   0.0000       0.702624        19.1194 
 247   0.0000       0.703528        19.1440 
 248   0.0000       0.708480        19.2787 
 249   0.0000       0.713984        19.4285 
 250   0.0000       0.714041        19.4300 
 251   0.0000       0.714565        19.4443 
 252   0.0000       0.730302        19.8725 
 253   0.0000       0.736000        20.0276 
 254   0.0000       0.737459        20.0673 
 255   0.0000       0.737901        20.0793 
 256   0.0000       0.743922        20.2432 
 257   0.0000       0.746521        20.3139 
 258   0.0000       0.758599        20.6425 
 259   0.0000       0.759104        20.6563 
 260   0.0000       0.761243        20.7145 
 261   0.0000       0.761296        20.7159 
 262   0.0000       0.762041        20.7362 
 263   0.0000       0.779570        21.2132 
 264   0.0000       0.812150        22.0997 
 265   0.0000       0.828561        22.5463 
 266   0.0000       0.852885        23.2082 
 267   0.0000       0.852998        23.2112 
 268   0.0000       0.856973        23.3194 
 269   0.0000       0.857667        23.3383 
 270   0.0000       0.896218        24.3873 
 271   0.0000       0.898798        24.4575 
 272   0.0000       0.906231        24.6598 
 273   0.0000       0.907980        24.7074 
 274   0.0000       0.916336        24.9348 
 275   0.0000       0.923339        25.1253 
 276   0.0000       0.924248        25.1501 
 277   0.0000       0.942533        25.6476 
 278   0.0000       0.950812        25.8729 
 279   0.0000       0.951831        25.9006 
 280   0.0000       0.956339        26.0233 
 281   0.0000       0.957729        26.0611 
 282   0.0000       0.958941        26.0941 
 283   0.0000       0.961395        26.1609 
 284   0.0000       0.964818        26.2540 
 285   0.0000       0.965432        26.2707 
 286   0.0000       0.984518        26.7901 
 287   0.0000       1.007595        27.4180 
 288   0.0000       1.010803        27.5053 
 289   0.0000       1.011537        27.5253 
 290   0.0000       1.016096        27.6494 
 291   0.0000       1.017259        27.6810 
 292   0.0000       1.018189        27.7063 
 293   0.0000       1.030068        28.0296 
 294   0.0000       1.030610        28.0443 
 295   0.0000       1.039681        28.2912 
 296   0.0000       1.040523        28.3141 
 297   0.0000       1.041621        28.3440 
 298   0.0000       1.046377        28.4734 
 299   0.0000       1.046894        28.4874 
 300   0.0000       1.054630        28.6979 
 301   0.0000       1.060380        28.8544 
 302   0.0000       1.060809        28.8661 
 303   0.0000       1.061267        28.8785 
 304   0.0000       1.067130        29.0381 
 305   0.0000       1.067527        29.0489 
 306   0.0000       1.070541        29.1309 
 307   0.0000       1.088478        29.6190 
 308   0.0000       1.094992        29.7963 
 309   0.0000       1.097009        29.8511 
 310   0.0000       1.125118        30.6160 
 311   0.0000       1.131242        30.7826 
 312   0.0000       1.131550        30.7911 
 313   0.0000       1.132520        30.8174 
 314   0.0000       1.135413        30.8962 
 315   0.0000       1.136035        30.9131 
 316   0.0000       1.140050        31.0223 
 317   0.0000       1.141234        31.0546 
 318   0.0000       1.142006        31.0756 
 319   0.0000       1.146439        31.1962 
 320   0.0000       1.147647        31.2291 
 321   0.0000       1.148867        31.2623 
 322   0.0000       1.149340        31.2751 
 323   0.0000       1.153091        31.3772 
 324   0.0000       1.153832        31.3974 
 325   0.0000       1.154712        31.4213 
 326   0.0000       1.155567        31.4446 
 327   0.0000       1.160701        31.5843 
 328   0.0000       1.161189        31.5976 
 329   0.0000       1.170346        31.8467 
 330   0.0000       1.204047        32.7638 
 331   0.0000       1.205201        32.7952 
 332   0.0000       1.205379        32.8000 
 333   0.0000       1.206534        32.8315 
 334   0.0000       1.208979        32.8980 
 335   0.0000       1.209435        32.9104 
 336   0.0000       1.214271        33.0420 
 337   0.0000       1.214874        33.0584 
 338   0.0000       1.215330        33.0708 
 339   0.0000       1.216376        33.0993 
 340   0.0000       1.233545        33.5665 
 341   0.0000       1.233762        33.5724 
 342   0.0000       1.249515        34.0010 
 343   0.0000       1.270612        34.5751 
 344   0.0000       1.279489        34.8167 
 345   0.0000       1.279900        34.8278 
 346   0.0000       1.282454        34.8973 
 347   0.0000       1.290329        35.1116 
 348   0.0000       1.294291        35.2195 
 349   0.0000       1.294967        35.2378 
 350   0.0000       1.307245        35.5719 
 351   0.0000       1.308406        35.6035 
 352   0.0000       1.313491        35.7419 
 353   0.0000       1.327870        36.1332 
 354   0.0000       1.330538        36.2058 
 355   0.0000       1.331086        36.2207 
 356   0.0000       1.368249        37.2319 
 357   0.0000       1.368671        37.2434 
 358   0.0000       1.381981        37.6056 
 359   0.0000       1.384733        37.6805 
 360   0.0000       1.385505        37.7015 
 361   0.0000       1.402945        38.1761 
 362   0.0000       1.403710        38.1969 
 363   0.0000       1.405113        38.2351 
 364   0.0000       1.412040        38.4236 
 365   0.0000       1.428902        38.8824 
 366   0.0000       1.429647        38.9027 
 367   0.0000       1.437990        39.1297 
 368   0.0000       1.440532        39.1989 
 369   0.0000       1.440951        39.2103 
 370   0.0000       1.455059        39.5942 
 371   0.0000       1.455886        39.6167 
 372   0.0000       1.464244        39.8441 
 373   0.0000       1.485153        40.4131 
 374   0.0000       1.487074        40.4654 
 375   0.0000       1.487650        40.4810 
 376   0.0000       1.496462        40.7208 
 377   0.0000       1.497593        40.7516 
 378   0.0000       1.498262        40.7698 
 379   0.0000       1.505684        40.9717 
 380   0.0000       1.507132        41.0111 
 381   0.0000       1.508252        41.0416 
 382   0.0000       1.511696        41.1353 
 383   0.0000       1.517938        41.3052 
 384   0.0000       1.519059        41.3357 
 385   0.0000       1.530830        41.6560 
 386   0.0000       1.532759        41.7085 
 387   0.0000       1.533345        41.7244 
 388   0.0000       1.539752        41.8988 
 389   0.0000       1.540588        41.9215 
 390   0.0000       1.540998        41.9327 
 391   0.0000       1.553833        42.2819 
 392   0.0000       1.565081        42.5880 
 393   0.0000       1.565387        42.5963 
 394   0.0000       1.566414        42.6243 
 395   0.0000       1.571390        42.7597 
 396   0.0000       1.572083        42.7786 
 397   0.0000       1.583327        43.0845 
 398   0.0000       1.598609        43.5004 
 399   0.0000       1.598929        43.5091 
 400   0.0000       1.611814        43.8597 
 401   0.0000       1.615576        43.9620 
 402   0.0000       1.616365        43.9835 
 403   0.0000       1.621171        44.1143 
 404   0.0000       1.641935        44.6793 
 405   0.0000       1.645384        44.7732 
 406   0.0000       1.651056        44.9275 
 407   0.0000       1.651504        44.9397 
 408   0.0000       1.662355        45.2350 
 409   0.0000       1.662790        45.2468 
 410   0.0000       1.668459        45.4011 
 411   0.0000       1.668615        45.4053 
 412   0.0000       1.686182        45.8834 
 413   0.0000       1.686635        45.8957 
 414   0.0000       1.687955        45.9316 
 415   0.0000       1.688061        45.9345 
 416   0.0000       1.688319        45.9415 
 417   0.0000       1.708031        46.4779 
 418   0.0000       1.731458        47.1154 
 419   0.0000       1.731788        47.1244 
 420   0.0000       1.736047        47.2402 
 421   0.0000       1.744405        47.4677 
 422   0.0000       1.745225        47.4900 
 423   0.0000       1.750040        47.6210 
 424   0.0000       1.752773        47.6954 
 425   0.0000       1.752876        47.6982 
 426   0.0000       1.763278        47.9812 
 427   0.0000       1.763534        47.9882 
 428   0.0000       1.781080        48.4657 
 429   0.0000       1.801242        49.0143 
 430   0.0000       1.801992        49.0347 
 431   0.0000       1.806843        49.1667 
 432   0.0000       1.806982        49.1705 
 433   0.0000       1.812389        49.3176 
 434   0.0000       1.812618        49.3238 
 435   0.0000       1.819381        49.5079 
 436   0.0000       1.819781        49.5188 
 437   0.0000       1.825358        49.6705 
 438   0.0000       1.832512        49.8652 
 439   0.0000       1.832760        49.8719 
 440   0.0000       1.835607        49.9494 
 441   0.0000       1.840434        50.0808 
 442   0.0000       1.841182        50.1011 
 443   0.0000       1.851263        50.3754 
 444   0.0000       1.855780        50.4983 
 445   0.0000       1.855954        50.5031 
 446   0.0000       1.857660        50.5495 
 447   0.0000       1.858246        50.5655 
 448   0.0000       1.858810        50.5808 
 449   0.0000       1.870157        50.8896 
 450   0.0000       1.905628        51.8548 
 451   0.0000       1.906150        51.8690 
 452   0.0000       1.907330        51.9011 
 453   0.0000       1.926095        52.4117 
 454   0.0000       1.930861        52.5414 
 455   0.0000       1.933050        52.6010 
 456   0.0000       1.939514        52.7769 
 457   0.0000       1.940112        52.7931 
 458   0.0000       1.943805        52.8936 
 459   0.0000       1.944590        52.9150 
 460   0.0000       1.950964        53.0884 
 461   0.0000       1.951121        53.0927 
 462   0.0000       1.967277        53.5323 
 463   0.0000       1.969399        53.5901 
 464   0.0000       1.971240        53.6402 
 465   0.0000       1.971521        53.6478 
 466   0.0000       1.993149        54.2363 
 467   0.0000       1.997405        54.3522 
 468   0.0000       1.997510        54.3550 
 469   0.0000       2.007336        54.6224 
 470   0.0000       2.007450        54.6255 
 471   0.0000       2.015316        54.8395 
 472   0.0000       2.017248        54.8921 
 473   0.0000       2.017562        54.9007 
 474   0.0000       2.024050        55.0772 
 475   0.0000       2.032770        55.3145 
 476   0.0000       2.033129        55.3242 
 477   0.0000       2.039701        55.5031 
 478   0.0000       2.040172        55.5159 
 479   0.0000       2.043496        55.6063 
 480   0.0000       2.052722        55.8574 
 481   0.0000       2.053269        55.8723 
 482   0.0000       2.069148        56.3044 
 483   0.0000       2.081908        56.6516 
 484   0.0000       2.084784        56.7298 
 485   0.0000       2.086825        56.7854 
 486   0.0000       2.087337        56.7993 
 487   0.0000       2.105750        57.3004 
 488   0.0000       2.106200        57.3126 
 489   0.0000       2.110569        57.4315 
 490   0.0000       2.118653        57.6515 
 491   0.0000       2.118737        57.6538 
 492   0.0000       2.124628        57.8141 
 493   0.0000       2.126078        57.8535 
 494   0.0000       2.126476        57.8644 
 495   0.0000       2.151229        58.5379 
 496   0.0000       2.162998        58.8582 
 497   0.0000       2.179058        59.2952 
 498   0.0000       2.179482        59.3067 
 499   0.0000       2.193450        59.6868 
 500   0.0000       2.209503        60.1236 
 501   0.0000       2.213392        60.2295 
 502   0.0000       2.213899        60.2432 
 503   0.0000       2.224032        60.5190 
 504   0.0000       2.224877        60.5420 
 505   0.0000       2.225026        60.5460 
 506   0.0000       2.229437        60.6661 
 507   0.0000       2.229758        60.6748 
 508   0.0000       2.250470        61.2384 
 509   0.0000       2.250753        61.2461 
 510   0.0000       2.274525        61.8930 
 511   0.0000       2.275085        61.9082 
 512   0.0000       2.290750        62.3345 
 513   0.0000       2.296279        62.4849 
 514   0.0000       2.307766        62.7975 
 515   0.0000       2.308034        62.8048 
 516   0.0000       2.314348        62.9766 
 517   0.0000       2.326557        63.3088 
 518   0.0000       2.348065        63.8941 
 519   0.0000       2.348110        63.8953 
 520   0.0000       2.358999        64.1916 
 521   0.0000       2.359448        64.2039 
 522   0.0000       2.359751        64.2121 
 523   0.0000       2.395425        65.1828 
 524   0.0000       2.395769        65.1922 
 525   0.0000       2.417948        65.7957 
 526   0.0000       2.423815        65.9553 
 527   0.0000       2.424102        65.9632 
 528   0.0000       2.426595        66.0310 
 529   0.0000       2.435512        66.2737 
 530   0.0000       2.436095        66.2895 
 531   0.0000       2.446366        66.5690 
 532   0.0000       2.456906        66.8558 
 533   0.0000       2.456976        66.8577 
 534   0.0000       2.468118        67.1609 
 535   0.0000       2.468660        67.1757 
 536   0.0000       2.474215        67.3268 
 537   0.0000       2.479557        67.4722 
 538   0.0000       2.511309        68.3362 
 539   0.0000       2.512022        68.3556 
 540   0.0000       2.522442        68.6391 
 541   0.0000       2.550351        69.3986 
 542   0.0000       2.564758        69.7906 
 543   0.0000       2.565448        69.8094 
 544   0.0000       2.584321        70.3229 
 545   0.0000       2.588242        70.4296 
 546   0.0000       2.600022        70.7502 
 547   0.0000       2.600412        70.7608 
 548   0.0000       2.616739        71.2051 
 549   0.0000       2.617505        71.2259 
 550   0.0000       2.632981        71.6471 
 551   0.0000       2.633294        71.6556 
 552   0.0000       2.633571        71.6631 
 553   0.0000       2.671658        72.6995 
 554   0.0000       2.682860        73.0043 
 555   0.0000       2.694713        73.3269 
 556   0.0000       2.694891        73.3317 
 557   0.0000       2.739701        74.5511 
 558   0.0000       2.745365        74.7052 
 559   0.0000       2.747914        74.7746 
[...]
 522( 0) :     2.359753 a.u.    64.212 eV
 523( 0) :     2.395422 a.u.    65.183 eV
 524( 0) :     2.395772 a.u.    65.192 eV
 525( 0) :     2.417950 a.u.    65.796 eV
 526( 0) :     2.423816 a.u.    65.955 eV
 527( 0) :     2.424105 a.u.    65.963 eV
 528( 0) :     2.426599 a.u.    66.031 eV
 529( 0) :     2.435513 a.u.    66.274 eV
 530( 0) :     2.436096 a.u.    66.290 eV
 531( 0) :     2.446367 a.u.    66.569 eV
 532( 0) :     2.456909 a.u.    66.856 eV
 533( 0) :     2.456979 a.u.    66.858 eV
 534( 0) :     2.468120 a.u.    67.161 eV
 535( 0) :     2.468663 a.u.    67.176 eV
 536( 0) :     2.474218 a.u.    67.327 eV
 537( 0) :     2.479556 a.u.    67.472 eV
 538( 0) :     2.511310 a.u.    68.336 eV
 539( 0) :     2.512024 a.u.    68.356 eV
 540( 0) :     2.522441 a.u.    68.639 eV
 541( 0) :     2.550353 a.u.    69.399 eV
 542( 0) :     2.564758 a.u.    69.791 eV
 543( 0) :     2.565445 a.u.    69.809 eV
 544( 0) :     2.584325 a.u.    70.323 eV
 545( 0) :     2.588235 a.u.    70.429 eV
 546( 0) :     2.600021 a.u.    70.750 eV
 547( 0) :     2.600413 a.u.    70.761 eV
 548( 0) :     2.616738 a.u.    71.205 eV
 549( 0) :     2.617503 a.u.    71.226 eV
 550( 0) :     2.632982 a.u.    71.647 eV
 551( 0) :     2.633293 a.u.    71.656 eV
 552( 0) :     2.633572 a.u.    71.663 eV
 553( 0) :     2.671658 a.u.    72.699 eV
 554( 0) :     2.682861 a.u.    73.004 eV
 555( 0) :     2.694712 a.u.    73.327 eV
 556( 0) :     2.694892 a.u.    73.332 eV
 557( 0) :     2.739705 a.u.    74.551 eV
 558( 0) :     2.745367 a.u.    74.705 eV
 559( 0) :     2.747917 a.u.    74.775 eV
 560( 0) :     2.748062 a.u.    74.779 eV
 561( 0) :     2.757963 a.u.    75.048 eV
 562( 0) :     2.758158 a.u.    75.053 eV
 563( 0) :     2.768244 a.u.    75.328 eV
 564( 0) :     2.768549 a.u.    75.336 eV
 565( 0) :     2.777383 a.u.    75.576 eV
 566( 0) :     2.785097 a.u.    75.786 eV
 567( 0) :     2.785482 a.u.    75.797 eV
 568( 0) :     2.791188 a.u.    75.952 eV
 569( 0) :     2.796000 a.u.    76.083 eV
 570( 0) :     2.796432 a.u.    76.095 eV
 571( 0) :     2.798445 a.u.    76.150 eV
 572( 0) :     2.819056 a.u.    76.710 eV
 573( 0) :     2.819406 a.u.    76.720 eV
 574( 0) :     2.856955 a.u.    77.742 eV
 575( 0) :     2.859713 a.u.    77.817 eV
 576( 0) :     2.860320 a.u.    77.833 eV
 577( 0) :     2.875878 a.u.    78.257 eV
 578( 0) :     2.875939 a.u.    78.258 eV
 579( 0) :     2.910631 a.u.    79.202 eV
 580( 0) :     2.911402 a.u.    79.223 eV
 581( 0) :     2.922651 a.u.    79.529 eV
 582( 0) :     2.923009 a.u.    79.539 eV
 583( 0) :     2.924934 a.u.    79.592 eV
 584( 0) :     2.934277 a.u.    79.846 eV
 585( 0) :     2.963067 a.u.    80.629 eV
 586( 0) :     2.964039 a.u.    80.656 eV
 587( 0) :     2.975513 a.u.    80.968 eV
 588( 0) :     2.986506 a.u.    81.267 eV
 589( 0) :     2.987043 a.u.    81.282 eV
 590( 0) :     3.063211 a.u.    83.354 eV
 591( 0) :     3.063394 a.u.    83.359 eV
 592( 0) :     3.067106 a.u.    83.460 eV
 593( 0) :     3.140889 a.u.    85.468 eV
 594( 0) :     3.799716 a.u.   103.396 eV
 595( 0) :     3.805595 a.u.   103.555 eV
 596( 0) :     3.834995 a.u.   104.356 eV
 597( 0) :     3.850326 a.u.   104.773 eV
 598( 0) :     3.885598 a.u.   105.732 eV
 599( 0) :     3.886208 a.u.   105.749 eV
 600( 0) :     5.167333 a.u.   140.610 eV
 601( 0) :     5.167619 a.u.   140.618 eV
 602( 0) :     5.176386 a.u.   140.857 eV
 603( 0) :     5.181906 a.u.   141.007 eV
 604( 0) :     5.182510 a.u.   141.023 eV
 605( 0) :     5.184997 a.u.   141.091 eV
 606( 0) :     5.280443 a.u.   143.688 eV
 607( 0) :     5.280484 a.u.   143.689 eV
 608( 0) :     5.285578 a.u.   143.828 eV
 609( 0) :     5.287571 a.u.   143.882 eV
 610( 0) :     5.287633 a.u.   143.884 eV
 611( 0) :     5.289806 a.u.   143.943 eV
 612( 0) :     5.298307 a.u.   144.174 eV
 613( 0) :     5.298548 a.u.   144.181 eV
 614( 0) :     5.301125 a.u.   144.251 eV
 615( 0) :     5.319101 a.u.   144.740 eV
 616( 0) :     5.319242 a.u.   144.744 eV
 617( 0) :     5.338341 a.u.   145.264 eV
 618( 0) :     5.371408 a.u.   146.163 eV
 619( 0) :     5.372120 a.u.   146.183 eV
 620( 0) :     5.383283 a.u.   146.487 eV
 621( 0) :     5.399278 a.u.   146.922 eV
 622( 0) :     5.399327 a.u.   146.923 eV
 623( 0) :     5.402872 a.u.   147.020 eV
 624( 0) :     5.416772 a.u.   147.398 eV
 625( 0) :     5.455647 a.u.   148.456 eV
 626( 0) :     5.455887 a.u.   148.462 eV
 627( 0) :     5.456252 a.u.   148.472 eV
 628( 0) :     5.486312 a.u.   149.290 eV
 629( 0) :     5.487138 a.u.   149.313 eV
 630( 0) :     5.487446 a.u.   149.321 eV
 631( 0) :     5.506815 a.u.   149.848 eV
 632( 0) :     5.520056 a.u.   150.208 eV
 633( 0) :     5.521292 a.u.   150.242 eV
 634( 0) :     5.546024 a.u.   150.915 eV
 635( 0) :     5.546155 a.u.   150.919 eV
 636( 0) :     5.557313 a.u.   151.222 eV
 637( 0) :     5.584337 a.u.   151.958 eV
 638( 0) :     5.587292 a.u.   152.038 eV
 639( 0) :     5.587680 a.u.   152.048 eV
 640( 0) :     5.646375 a.u.   153.646 eV
 641( 0) :     5.647122 a.u.   153.666 eV
 642( 0) :     5.669264 a.u.   154.269 eV
 643( 0) :     5.729542 a.u.   155.909 eV
 644( 0) :     5.730475 a.u.   155.934 eV
 645( 0) :     5.745538 a.u.   156.344 eV
 646( 0) :     5.753304 a.u.   156.555 eV
 647( 0) :     5.758532 a.u.   156.698 eV
 648( 0) :     5.759014 a.u.   156.711 eV
 649( 0) :     5.839148 a.u.   158.891 eV
 650( 0) :     5.839247 a.u.   158.894 eV
 651( 0) :     5.894661 a.u.   160.402 eV
 652( 0) :     5.990144 a.u.   163.000 eV
 653( 0) :     5.990244 a.u.   163.003 eV
 654( 0) :     6.074677 a.u.   165.300 eV
 655( 0) :     6.074969 a.u.   165.308 eV
 656( 0) :     6.085246 a.u.   165.588 eV
 657( 0) :     6.096984 a.u.   165.907 eV
 658( 0) :     6.106981 a.u.   166.179 eV
 659( 0) :     6.107253 a.u.   166.187 eV
 660( 0) :     6.114877 a.u.   166.394 eV
 661( 0) :     6.115052 a.u.   166.399 eV
 662( 0) :     6.121932 a.u.   166.586 eV
 663( 0) :     7.460494 a.u.   203.010 eV
 664( 0) :    29.649989 a.u.   806.817 eV
 665( 0) :    29.717741 a.u.   808.661 eV
 666( 0) :    29.717968 a.u.   808.667 eV
 667( 0) :    29.782785 a.u.   810.431 eV
 668( 0) :    29.793272 a.u.   810.716 eV
 669( 0) :    29.793422 a.u.   810.720 eV
 670( 0) :    29.832356 a.u.   811.780 eV
 671( 0) :    30.009903 a.u.   816.611 eV
 672( 0) :    30.010461 a.u.   816.626 eV
 673( 0) :    30.019239 a.u.   816.865 eV
 674( 0) :    30.035447 a.u.   817.306 eV
 675( 0) :    30.041166 a.u.   817.462 eV
 676( 0) :    30.041393 a.u.   817.468 eV
 677( 0) :    30.108527 a.u.   819.295 eV
 678( 0) :    30.108650 a.u.   819.298 eV
 679( 0) :    30.148947 a.u.   820.395 eV
 680( 0) :    30.240243 a.u.   822.879 eV
 681( 0) :    30.240305 a.u.   822.881 eV
 682( 0) :    30.295794 a.u.   824.390 eV
 683( 0) :    30.295951 a.u.   824.395 eV
 684( 0) :    30.319256 a.u.   825.029 eV
 685( 0) :    30.321289 a.u.   825.084 eV
 686( 0) :    30.329320 a.u.   825.303 eV
 687( 0) :    30.329441 a.u.   825.306 eV
 688( 0) :    30.333863 a.u.   825.426 eV
 689( 0) :    30.338870 a.u.   825.563 eV
 690( 0) :    30.338950 a.u.   825.565 eV
 691( 0) :    36.673623 a.u.   997.940 eV
 692( 0) :    36.681733 a.u.   998.161 eV
 693( 0) :    36.681882 a.u.   998.165 eV
 694( 0) :    36.764086 a.u.  1000.402 eV
 695( 0) :    36.766121 a.u.  1000.457 eV
 696( 0) :    36.774647 a.u.  1000.689 eV
 697( 0) :    36.862987 a.u.  1003.093 eV
 698( 0) :    36.878786 a.u.  1003.523 eV
 699( 0) :    36.878999 a.u.  1003.529 eV
 700( 0) :    36.893334 a.u.  1003.919 eV
 701( 0) :    36.893445 a.u.  1003.922 eV
 702( 0) :    36.893497 a.u.  1003.923 eV
 703( 0) :    36.894568 a.u.  1003.952 eV
 704( 0) :    36.905579 a.u.  1004.252 eV
 705( 0) :    36.905875 a.u.  1004.260 eV
 706( 0) :    36.909075 a.u.  1004.347 eV
 707( 0) :    36.909176 a.u.  1004.350 eV
 708( 0) :    36.939156 a.u.  1005.166 eV
 709( 0) :    36.962123 a.u.  1005.791 eV
 710( 0) :    36.962203 a.u.  1005.793 eV
 711( 0) :    36.978878 a.u.  1006.246 eV
 712( 0) :    36.987485 a.u.  1006.481 eV
 713( 0) :    37.012484 a.u.  1007.161 eV
 714( 0) :    37.012850 a.u.  1007.171 eV
 715( 0) :    37.015748 a.u.  1007.250 eV
 716( 0) :    37.026755 a.u.  1007.549 eV
 717( 0) :    37.032249 a.u.  1007.699 eV
 718( 0) :    37.105317 a.u.  1009.687 eV
 719( 0) :    37.105803 a.u.  1009.700 eV
 720( 0) :    37.111743 a.u.  1009.862 eV
 721( 0) :    37.245585 a.u.  1013.504 eV
 722( 0) :    37.254018 a.u.  1013.733 eV
 723( 0) :    37.269634 a.u.  1014.158 eV
 724( 0) :    37.358364 a.u.  1016.573 eV
 725( 0) :    37.370928 a.u.  1016.915 eV
 726( 0) :    37.371303 a.u.  1016.925 eV
 727( 0) :    41.163193 a.u.  1120.107 eV
-------
TIMINGS
-------

Total SCF time: 0 days 0 hours 1 min 11 sec 

Total time                  ....      71.014 sec
Sum of individual times     ....      66.893 sec  ( 94.2%)

Fock matrix formation       ....      42.446 sec  ( 59.8%)
  Split-RI-J                ....      24.978 sec  ( 58.8% of F)
  XC integration            ....      10.802 sec  ( 25.4% of F)
    Basis function eval.    ....       0.359 sec  (  3.3% of XC)
    Density eval.           ....       0.984 sec  (  9.1% of XC)
    XC-Functional eval.     ....       0.329 sec  (  3.0% of XC)
    XC-Potential eval.      ....       1.177 sec  ( 10.9% of XC)
Diagonalization             ....       8.232 sec  ( 11.6%)
Density matrix formation    ....       0.610 sec  (  0.9%)
Population analysis         ....       4.059 sec  (  5.7%)
Initial guess               ....       0.849 sec  (  1.2%)
Orbital Transformation      ....       0.000 sec  (  0.0%)
Orbital Orthonormalization  ....       0.000 sec  (  0.0%)
DIIS solution               ....       6.266 sec  (  8.8%)
Grid generation             ....       4.431 sec  (  6.2%)

-------------------------   --------------------
FINAL SINGLE POINT ENERGY     -1103.168037310059
-------------------------   --------------------

   --->>> SOC part of D-tensor requested, so NeedSOC=true

                            ***************************************
                            *     ORCA property calculations      *
                            ***************************************

                                    ---------------------
                                    Active property flags
                                    ---------------------
   (+) Dipole Moment
   (+) D-tensor
   (+) Spin-Orbit Integrals are needed


------------------------------------------------------------------------------
                       ORCA ELECTRIC PROPERTIES CALCULATION
------------------------------------------------------------------------------

Dipole Moment Calculation                       ... on
Quadrupole Moment Calculation                   ... off
Polarizability Calculation                      ... off
GBWName                                         ... zfs.gbw
Electron density file                           ... zfs.scfp
The origin for moment calculation is the CENTER OF MASS  = ( 0.000051, -0.000021 -3.167486)

-------------
DIPOLE MOMENT
-------------
                                X             Y             Z
Electronic contribution:      0.00179       0.00866       1.06712
Nuclear contribution   :     -0.00336       0.00179      -0.32886
                        -----------------------------------------
Total Dipole Moment    :     -0.00158       0.01045       0.73826
                        -----------------------------------------
Magnitude (a.u.)       :      0.73833
Magnitude (Debye)      :      1.87669



--------------------
Rotational spectrum 
--------------------
 
Rotational constants in cm-1:     0.009246     0.009141     0.009141 
Rotational constants in MHz :   277.183097   274.048600   274.045280 

 Dipole components along the rotational axes: 
x,y,z [a.u.] :     0.738260     0.005134    -0.008885 
x,y,z [Debye]:     1.876507     0.013050    -0.022585 

 


           ************************************************************
           *        Program running with 72 parallel MPI-processes    *
           *              working on a shared directory               *
           ************************************************************
------------------------------------------------------------------------------
                         ORCA SPIN-ORBIT COUPLING CALCULATION
------------------------------------------------------------------------------

GBW file                                    ... zfs.gbw
Input density                               ... zfs.scfp
Output integrals                            ... zfs
Operator type                               ... Mean-field/Effective potential
   One-Electron Terms                       ... 1
   Coulomb Contribution                     ... 2
   Exchange Contribution                    ... 3
   Correlation Contribution                 ... 0
   Maximum number of centers                ... 4
Setting up the integration grid             ... done
Evaluating density on the grid              ... (NumEl=  205.996603) done
Evaluating Coulomb term semi-analytically   ... done
One-Center Exchange (+SOO)                  ... done
Evaluating the spin-orbit operator          ... done
Total time for SOC: 66.872


           ************************************************************
           *        Program running with 72 parallel MPI-processes    *
           *              working on a shared directory               *
           ************************************************************
------------------------------------------------------------------------------
                                ORCA EPR/NMR CALCULATION
------------------------------------------------------------------------------

GBWName                      ... zfs.gbw
Electron density file        ... zfs.scfp
Spin density file            ... zfs.scfr
Spin-orbit integrals         ... zfs
Multiplicity                 ... 3
g-tensor                     ... 0
NMR chemical shifts          ... 0
D-tensor                     ... spin-spin and spin-orbit
D(SS)-algorithm              ... spin-density from UNOs
D(SOC)-algorithm             ... CP (=Coupled-perturbed)
Active orbitals for UNO spin density= 102 .. 103

Starting the spin-spin zero-field-splitting computation (UNO)...
                        ... done with spin-spin calculation

Starting the spin-orbit zero-field-splitting computation (CP)...
Transforming integrals                       ... Max(Pert)=   5.6144e-06
Warning: Perturbation too small - adjusting
Transforming integrals                       ... Max(Pert)=   6.1141e-05
Warning: Perturbation too small - adjusting
Transforming integrals                       ... Max(Pert)=   6.6583e-04
Warning: Perturbation too small - adjusting
Transforming integrals                       ... Max(Pert)=   7.2508e-03
done
    ... no HF exchange - skipping linear equations
ZFS-Tensor - using the prefactors
   -1/(4S**2) for same spin
    1/(2*S*(2*S-1)) for alpha->beta
    1/((S+1)*(2*S+1)) for beta->alpha
                        ... done with spin-orbit calculation

---------------------------
ZERO-FIELD-SPLITTING TENSOR
---------------------------

raw-matrix : 
   0.019884     0.000146     0.000008  
   0.000146     0.019978    -0.000027  
   0.000008    -0.000027     0.087172  

Tensor is right-handed
diagonalized D matrix : 
   0.019777     0.020085     0.087172  

  -0.808178     0.588938    -0.000120  
   0.588938     0.808178     0.000408  
   0.000337     0.000259    -1.000000  


Direction X=1 Y=0 Z=2
D   =     0.067241  cm**-1
E/D =     0.002285

SPIN-SPIN-PART
                   0          1          2    
      0      -0.021944   0.000145  -0.000003
      1       0.000145  -0.021867  -0.000022
      2      -0.000003  -0.000022   0.043812
Exchange and Coulomb parts of SS (raw)
Coulomb
                   0          1          2    
      0      -0.020740   0.001635  -0.000035
      1       0.001635  -0.011508   0.000032
      2      -0.000035   0.000032   0.032247
Exchange
                   0          1          2    
      0      -0.001205  -0.001490   0.000032
      1      -0.001490  -0.010360  -0.000054
      2       0.000032  -0.000054   0.011564
One-, two-, three- and four-center SS contributions (raw)
One-Center            (AA|AA):
                   0          1          2    
      0      -0.001593  -0.000041   0.000031
      1      -0.000041  -0.001428   0.000077
      2       0.000031   0.000077   0.003021
Two-Center-Coulomb    (AA|BB):
                   0          1          2    
      0      -0.314415  -0.025009   0.001291
      1      -0.025009  -0.378904  -0.006150
      2       0.001291  -0.006150   0.693319
Two-Center-Exchange   (AB|BA):
                   0          1          2    
      0      -0.013154   0.000682  -0.000364
      1       0.000682  -0.015853   0.000320
      2      -0.000364   0.000320   0.029008
Two-Center-hybrid     (AA|AB):
                   0          1          2    
      0       0.000885   0.000210  -0.000104
      1       0.000210   0.002020  -0.000844
      2      -0.000104  -0.000844  -0.002905
Three-Center-Coulomb  (AA|BC):
                   0          1          2    
      0       0.535846   0.044114  -0.004625
      1       0.044114   0.653180   0.009739
      2      -0.004625   0.009739  -1.189026
Three-Center-Exchange (AB|AC):
                   0          1          2    
      0      -0.005957  -0.000067   0.001246
      1      -0.000067  -0.002555   0.000810
      2       0.001246   0.000810   0.008511
Four-Center           (AB|CD):
                   0          1          2    
      0      -0.223556  -0.019744   0.002521
      1      -0.019744  -0.278327  -0.003973
      2       0.002521  -0.003973   0.501883
ALPHA-PART
                   0          1          2    
      0      -0.113510   0.000004  -0.000006
      1       0.000004  -0.113520   0.000007
      2      -0.000006   0.000007  -0.108850
BETA-PART
                   0          1          2    
      0      -0.111420   0.000008  -0.000006
      1       0.000008  -0.111422   0.000019
      2      -0.000006   0.000019  -0.104877
ALPHA->BETA-PART
                   0          1          2    
      0       0.230143  -0.000008   0.000022
      1      -0.000008   0.230173  -0.000027
      2       0.000022  -0.000027   0.222869
BETA->ALPHA-PART
                   0          1          2    
      0       0.036615  -0.000002   0.000001
      1      -0.000002   0.036614  -0.000005
      2       0.000001  -0.000005   0.034218

Individual contributions (in cm**-1)
                                   D         E
SPIN-SPIN                  :   0.06572    0.00015
  Exchange vs Coulomb
  Coulomb                  :   0.04837    0.00297
  Exchange                 :   0.01735   -0.00282
  One through four center contributions:
  1-center                 :   0.00453   -0.00001
  2-center-Coulomb         :   1.03999   -0.03368
  2-center-Exchange        :   0.04351    0.00024
  2-center-Hybrid          :  -0.00436    0.00037
  3-center-Coulomb         :  -1.78355    0.05996
  3-center-Exchange        :   0.01277    0.00046
  4-center                 :   0.75283   -0.02718
SPIN-ORBIT                 :   0.00152    0.00000
SOMO->VMO  (alpha->alpha)  :   0.00466    0.00000
DOMO->SOMO (beta ->beta )  :   0.00654    0.00001
SOMO->SOMO (alpha->beta )  :  -0.00729   -0.00000
DOMO->VMO  (beta ->alpha)  :  -0.00240   -0.00000


Timings for individual modules:

Sum of individual times         ...      265.787 sec (=   4.430 min)
GTO integral calculation        ...       11.167 sec (=   0.186 min)   4.2 %
Spin-Orbit-Coupling Matrices    ...       66.862 sec (=   1.114 min)  25.2 %
SCF iterations                  ...       78.562 sec (=   1.309 min)  29.6 %
EPR/NMR calculation             ...      109.195 sec (=   1.820 min)  41.1 %
                             ****ORCA TERMINATED NORMALLY****
TOTAL RUN TIME: 0 days 0 hours 4 minutes 37 seconds 536 msec
