
     Program PWSCF v.6.1 (svn rev. 13369) starts on 11Dec2021 at 23:50:37 

     This program is part of the open-source Quantum ESPRESSO suite
     for quantum simulation of materials; please cite
         "P. Giannozzi et al., J. Phys.:Condens. Matter 21 395502 (2009);
          URL http://www.quantum-espresso.org", 
     in publications or presentations arising from this work. More details at
     http://www.quantum-espresso.org/quote

     Parallel version (MPI), running on   160 processors
     K-points division:     npool     =       5
     R & G space division:  proc/nbgrp/npool/nimage =      32
     Reading input from nscf.in
Warning: card &CELL ignored
Warning: card / ignored
Warning: card &IONS ignored
Warning: card / ignored

     Current dimensions of program PWSCF are:
     Max number of different atomic species (ntypx) = 10
     Max number of k-points (npk) = 120000
     Max angular momentum in pseudopotentials (lmaxx) =  3

     Atomic positions and unit cell read from directory:
     ./temp/BN.save/
 

     Subspace diagonalization in iterative solution of the eigenvalue problem:
     a serial algorithm will be used

 
     Parallelization info
     --------------------
     sticks:   dense  smooth     PW     G-vecs:    dense   smooth      PW
     Min         383     383    100                36153    36153    4794
     Max         384     384    101                36157    36157    4797
     Sum       12259   12259   3205              1156971  1156971  153445
 


     bravais-lattice index     =            0
     lattice parameter (alat)  =      28.4287  a.u.
     unit-cell volume          =   20997.3881 (a.u.)^3
     number of atoms/cell      =           72
     number of atomic types    =            3
     number of electrons       =       288.00
     number of Kohn-Sham states=         1800
     kinetic-energy cutoff     =      55.0000  Ry
     charge density cutoff     =     220.0000  Ry
     Exchange-correlation      = PBE ( 1  4  3  4 0 0)

     celldm(1)=  28.428666  celldm(2)=   0.000000  celldm(3)=   0.000000
     celldm(4)=   0.000000  celldm(5)=   0.000000  celldm(6)=   0.000000

     crystal axes: (cart. coord. in units of alat)
               a(1) = (   1.000000   0.000000   0.000000 )  
               a(2) = (  -0.499999   0.866026   0.000000 )  
               a(3) = (   0.000000   0.000000   1.055273 )  

     reciprocal axes: (cart. coord. in units 2 pi/alat)
               b(1) = (  1.000000  0.577349  0.000000 )  
               b(2) = (  0.000000  1.154700  0.000000 )  
               b(3) = (  0.000000  0.000000  0.947622 )  


     PseudoPot. # 1 for B  read from file:
     ~/pseudo-ONCV-proj/B_ONCV_PBE-1.0.upf
     MD5 check sum: a9fd2462c33df863cd3ce8a66ea40380
     Pseudo is Norm-conserving, Zval =  3.0
     Generated using ONCVPSP code by D. R. Hamann
     Using radial grid of 1534 points,  4 beta functions with: 
                l(1) =   0
                l(2) =   0
                l(3) =   1
                l(4) =   1

     PseudoPot. # 2 for N  read from file:
     ~/pseudo-ONCV-proj/N_ONCV_PBE-1.0.upf
     MD5 check sum: 09890da6b2972017450f7114a6086fad
     Pseudo is Norm-conserving, Zval =  5.0
     Generated using ONCVPSP code by D. R. Hamann
     Using radial grid of 1058 points,  4 beta functions with: 
                l(1) =   0
                l(2) =   0
                l(3) =   1
                l(4) =   1

     PseudoPot. # 3 for C  read from file:
     ~/pseudo-ONCV-proj/C_ONCV_PBE-1.0.upf
     MD5 check sum: 72b63e32b2fd29504de26a4901699f60
     Pseudo is Norm-conserving, Zval =  4.0
     Generated using ONCVPSP code by D. R. Hamann
     Using radial grid of 1248 points,  4 beta functions with: 
                l(1) =   0
                l(2) =   0
                l(3) =   1
                l(4) =   1

     atomic species   valence    mass     pseudopotential
        B              3.00    10.81100     B ( 1.00)
        N              5.00    14.00674     N ( 1.00)
        C              4.00    12.01070     C ( 1.00)

      2 Sym. Ops. (no inversion) found


                                    s                        frac. trans.

      isym =  1     identity                                     

 cryst.   s( 1) = (     1          0          0      )
                  (     0          1          0      )
                  (     0          0          1      )

 cart.    s( 1) = (  1.0000000 -0.0000000  0.0000000 )
                  (  0.0000000  1.0000000  0.0000000 )
                  (  0.0000000  0.0000000  1.0000000 )


      isym =  2     inv. 180 deg rotation - cart. axis [0,0,1]   

 cryst.   s( 2) = (     1          0          0      )
                  (     0          1          0      )
                  (     0          0         -1      )

 cart.    s( 2) = (  1.0000000 -0.0000000  0.0000000 )
                  (  0.0000000  1.0000000  0.0000000 )
                  (  0.0000000  0.0000000 -1.0000000 )


   Cartesian axes

     site n.     atom                  positions (alat units)
         1           B   tau(   1) = (  -0.0001374   0.0960743   0.0000000  )
         2           B   tau(   2) = (  -0.0832706   0.2406653   0.0000000  )
         3           B   tau(   3) = (  -0.1665461   0.3849030   0.0000000  )
         4           B   tau(   4) = (  -0.2501986   0.5291942   0.0000000  )
         5           B   tau(   5) = (  -0.3332493   0.6735949   0.0000000  )
         6           B   tau(   6) = (  -0.4166074   0.8179757   0.0000000  )
         7           B   tau(   7) = (   0.1666510   0.0960620   0.0000000  )
         8           B   tau(   8) = (   0.0832793   0.2404455   0.0000000  )
         9           B   tau(   9) = (   0.0006447   0.3852722   0.0000000  )
        10           B   tau(  10) = (  -0.0834613   0.5292494   0.0000000  )
        11           B   tau(  11) = (  -0.1668148   0.6736434   0.0000000  )
        12           B   tau(  12) = (  -0.2500120   0.8179058   0.0000000  )
        13           B   tau(  13) = (   0.3334876   0.0959617   0.0000000  )
        14           B   tau(  14) = (   0.2504306   0.2394718   0.0000000  )
        15           B   tau(  15) = (   0.1680132   0.3835188   0.0000000  )
        16           B   tau(  16) = (   0.0828106   0.5310944   0.0000000  )
        17           B   tau(  17) = (  -0.0007287   0.6744936   0.0000000  )
        18           B   tau(  18) = (  -0.0834833   0.8181784   0.0000000  )
        19           B   tau(  19) = (   0.5000741   0.0962676   0.0000000  )
        20           B   tau(  20) = (   0.4165064   0.2409081   0.0000000  )
        21           B   tau(  21) = (   0.3321667   0.3851594   0.0000000  )
        22           B   tau(  22) = (   0.1663083   0.6724353   0.0000000  )
        23           B   tau(  23) = (   0.0835532   0.8176015   0.0000000  )
        24           B   tau(  24) = (   0.6666810   0.0961419   0.0000000  )
        25           B   tau(  25) = (   0.5832688   0.2406164   0.0000000  )
        26           B   tau(  26) = (   0.4996910   0.3850114   0.0000000  )
        27           B   tau(  27) = (   0.4164087   0.5300874   0.0000000  )
        28           B   tau(  28) = (   0.3339405   0.6729269   0.0000000  )
        29           B   tau(  29) = (   0.2499425   0.8175897   0.0000000  )
        30           B   tau(  30) = (   0.8332574   0.0961316   0.0000000  )
        31           B   tau(  31) = (   0.7499675   0.2405436   0.0000000  )
        32           B   tau(  32) = (   0.6665482   0.3848810   0.0000000  )
        33           B   tau(  33) = (   0.5829884   0.5292654   0.0000000  )
        34           B   tau(  34) = (   0.5004862   0.6738558   0.0000000  )
        35           B   tau(  35) = (   0.4165186   0.8176002   0.0000000  )
        36           N   tau(  36) = (   0.0832566   0.0479756   0.0000000  )
        37           N   tau(  37) = (  -0.0001324   0.1921622   0.0000000  )
        38           N   tau(  38) = (  -0.0831249   0.3369078   0.0000000  )
        39           N   tau(  39) = (  -0.1669817   0.4811544   0.0000000  )
        40           N   tau(  40) = (  -0.2501561   0.6254649   0.0000000  )
        41           N   tau(  41) = (  -0.3333835   0.7697712   0.0000000  )
        42           N   tau(  42) = (   0.2500491   0.0480057   0.0000000  )
        43           N   tau(  43) = (   0.1667622   0.1920486   0.0000000  )
        44           N   tau(  44) = (   0.0836652   0.3362562   0.0000000  )
        45           N   tau(  45) = (  -0.0002939   0.4816781   0.0000000  )
        46           N   tau(  46) = (  -0.0836325   0.6257463   0.0000000  )
        47           N   tau(  47) = (  -0.1667336   0.7698965   0.0000000  )
        48           N   tau(  48) = (   0.4167729   0.0481736   0.0000000  )
        49           N   tau(  49) = (   0.3337499   0.1919945   0.0000000  )
        50           N   tau(  50) = (   0.2508819   0.3352819   0.0000000  )
        51           N   tau(  51) = (   0.0824707   0.6269793   0.0000000  )
        52           N   tau(  52) = (  -0.0001855   0.7703890   0.0000000  )
        53           N   tau(  53) = (   0.5834889   0.0479281   0.0000000  )
        54           N   tau(  54) = (   0.4999184   0.1926768   0.0000000  )
        55           N   tau(  55) = (   0.4161399   0.3376469   0.0000000  )
        56           N   tau(  56) = (   0.3315638   0.4833534   0.0000000  )
        57           N   tau(  57) = (   0.2510452   0.6228160   0.0000000  )
        58           N   tau(  58) = (   0.1671480   0.7689146   0.0000000  )
        59           N   tau(  59) = (   0.7499669   0.0477900   0.0000000  )
        60           N   tau(  60) = (   0.6665878   0.1924044   0.0000000  )
        61           N   tau(  61) = (   0.5830380   0.3369201   0.0000000  )
        62           N   tau(  62) = (   0.4991302   0.4813246   0.0000000  )
        63           N   tau(  63) = (   0.4170949   0.6257098   0.0000000  )
        64           N   tau(  64) = (   0.3330716   0.7689472   0.0000000  )
        65           N   tau(  65) = (   0.9164588   0.0477333   0.0000000  )
        66           N   tau(  66) = (   0.8332717   0.1923591   0.0000000  )
        67           N   tau(  67) = (   0.7498907   0.3367796   0.0000000  )
        68           N   tau(  68) = (   0.6662350   0.4811348   0.0000000  )
        69           N   tau(  69) = (   0.5833233   0.6254550   0.0000000  )
        70           N   tau(  70) = (   0.4999886   0.7697954   0.0000000  )
        71           C   tau(  71) = (   0.2499252   0.5291944   0.0000000  )
        72           C   tau(  72) = (   0.1706383   0.4834180   0.0000000  )

   Crystallographic axes

     site n.     atom                  positions (cryst. coord.)
         1           B   tau(   1) = (  0.0553309  0.1109369  0.0000000  )
         2           B   tau(   2) = (  0.0556771  0.2778961  0.0000000  )
         3           B   tau(   3) = (  0.0556771  0.4444474  0.0000000  )
         4           B   tau(   4) = (  0.0553309  0.6110604  0.0000000  )
         5           B   tau(   5) = (  0.0556498  0.7777999  0.0000000  )
         6           B   tau(   6) = (  0.0556498  0.9445163  0.0000000  )
         7           B   tau(   7) = (  0.2221123  0.1109228  0.0000000  )
         8           B   tau(   8) = (  0.2221002  0.2776423  0.0000000  )
         9           B   tau(   9) = (  0.2230811  0.4448737  0.0000000  )
        10           B   tau(  10) = (  0.2221002  0.6111242  0.0000000  )
        11           B   tau(  11) = (  0.2221123  0.7778558  0.0000000  )
        12           B   tau(  12) = (  0.2222049  0.9444356  0.0000000  )
        13           B   tau(  13) = (  0.3888909  0.1108069  0.0000000  )
        14           B   tau(  14) = (  0.3886894  0.2765181  0.0000000  )
        15           B   tau(  15) = (  0.3894372  0.4428490  0.0000000  )
        16           B   tau(  16) = (  0.3894372  0.6132546  0.0000000  )
        17           B   tau(  17) = (  0.3886894  0.7788376  0.0000000  )
        18           B   tau(  18) = (  0.3888909  0.9447503  0.0000000  )
        19           B   tau(  19) = (  0.5556541  0.1111602  0.0000000  )
        20           B   tau(  20) = (  0.5555943  0.2781765  0.0000000  )
        21           B   tau(  21) = (  0.5545380  0.4447435  0.0000000  )
        22           B   tau(  22) = (  0.5545380  0.7764608  0.0000000  )
        23           B   tau(  23) = (  0.5555944  0.9440842  0.0000000  )
        24           B   tau(  24) = (  0.7221884  0.1110150  0.0000000  )
        25           B   tau(  25) = (  0.7221884  0.2778397  0.0000000  )
        26           B   tau(  26) = (  0.7219769  0.4445725  0.0000000  )
        27           B   tau(  27) = (  0.7224540  0.6120918  0.0000000  )
        28           B   tau(  28) = (  0.7224540  0.7770285  0.0000000  )
        29           B   tau(  29) = (  0.7219768  0.9440707  0.0000000  )
        30           B   tau(  30) = (  0.8887588  0.1110031  0.0000000  )
        31           B   tau(  31) = (  0.8888450  0.2777557  0.0000000  )
        32           B   tau(  32) = (  0.8887588  0.4444220  0.0000000  )
        33           B   tau(  33) = (  0.8885590  0.6111426  0.0000000  )
        34           B   tau(  34) = (  0.8895360  0.7781012  0.0000000  )
        35           B   tau(  35) = (  0.8885590  0.9440828  0.0000000  )
        36           N   tau(  36) = (  0.1109552  0.0553974  0.0000000  )
        37           N   tau(  37) = (  0.1108122  0.2218896  0.0000000  )
        38           N   tau(  38) = (  0.1113884  0.3890274  0.0000000  )
        39           N   tau(  39) = (  0.1108122  0.5555889  0.0000000  )
        40           N   tau(  40) = (  0.1109552  0.7222241  0.0000000  )
        41           N   tau(  41) = (  0.1110429  0.8888546  0.0000000  )
        42           N   tau(  42) = (  0.2777652  0.0554322  0.0000000  )
        43           N   tau(  43) = (  0.2776412  0.2217585  0.0000000  )
        44           N   tau(  44) = (  0.2778023  0.3882750  0.0000000  )
        45           N   tau(  45) = (  0.2778023  0.5561936  0.0000000  )
        46           N   tau(  46) = (  0.2776412  0.7225490  0.0000000  )
        47           N   tau(  47) = (  0.2777652  0.8889993  0.0000000  )
        48           N   tau(  48) = (  0.4445859  0.0556261  0.0000000  )
        49           N   tau(  49) = (  0.4445976  0.2216959  0.0000000  )
        50           N   tau(  50) = (  0.4444565  0.3871499  0.0000000  )
        51           N   tau(  51) = (  0.4444565  0.7239729  0.0000000  )
        52           N   tau(  52) = (  0.4445976  0.8895679  0.0000000  )
        53           N   tau(  53) = (  0.6111601  0.0553426  0.0000000  )
        54           N   tau(  54) = (  0.6111601  0.2224839  0.0000000  )
        55           N   tau(  55) = (  0.6110799  0.3898807  0.0000000  )
        56           N   tau(  56) = (  0.6106273  0.5581281  0.0000000  )
        57           N   tau(  57) = (  0.6106272  0.7191654  0.0000000  )
        58           N   tau(  58) = (  0.6110799  0.8878654  0.0000000  )
        59           N   tau(  59) = (  0.7775584  0.0551831  0.0000000  )
        60           N   tau(  60) = (  0.7776722  0.2221693  0.0000000  )
        61           N   tau(  61) = (  0.7775584  0.3890416  0.0000000  )
        62           N   tau(  62) = (  0.7770223  0.5557854  0.0000000  )
        63           N   tau(  63) = (  0.7783477  0.7225070  0.0000000  )
        64           N   tau(  64) = (  0.7770223  0.8879031  0.0000000  )
        65           N   tau(  65) = (  0.9440176  0.0551176  0.0000000  )
        66           N   tau(  66) = (  0.9443299  0.2221170  0.0000000  )
        67           N   tau(  67) = (  0.9443300  0.3888793  0.0000000  )
        68           N   tau(  68) = (  0.9440176  0.5555663  0.0000000  )
        69           N   tau(  69) = (  0.9444289  0.7222127  0.0000000  )
        70           N   tau(  70) = (  0.9444289  0.8888825  0.0000000  )
        71           C   tau(  71) = (  0.5554550  0.6110606  0.0000000  )
        72           C   tau(  72) = (  0.4497390  0.5582027  0.0000000  )

     number of k points=     5
                       cart. coord. in units 2pi/alat
        k(    1) = (   0.0000000   0.0000000   0.0000000), wk =   0.2222222
        k(    2) = (   0.0000000   0.3848999   0.0000000), wk =   0.4444444
        k(    3) = (   0.3333333   0.1924496   0.0000000), wk =   0.4444444
        k(    4) = (   0.3333333   0.5773495   0.0000000), wk =   0.4444444
        k(    5) = (   0.3333333  -0.1924503   0.0000000), wk =   0.4444444

                       cryst. coord.
        k(    1) = (   0.0000000   0.0000000   0.0000000), wk =   0.2222222
        k(    2) = (   0.0000000   0.3333333   0.0000000), wk =   0.4444444
        k(    3) = (   0.3333333  -0.0000000   0.0000000), wk =   0.4444444
        k(    4) = (   0.3333333   0.3333333   0.0000000), wk =   0.4444444
        k(    5) = (   0.3333333  -0.3333333   0.0000000), wk =   0.4444444

     Dense  grid:  1156971 G-vectors     FFT dimensions: ( 135, 135, 144)

     Estimated max dynamical RAM per process >    2269.93MB

     Estimated total allocated dynamical RAM >  363188.45MB

     The potential is recalculated from file :
     ./temp/BN.save/charge-density.dat

     Starting wfc are  288 randomized atomic wfcs + 1512 random wfc

     Band Structure Calculation
     Davidson diagonalization with overlap

     Computing kpt #:     1
     total cpu time spent up to now is     2795.5 secs

     ethr =  3.47E-12,  avg # of iterations = 21.2

     total cpu time spent up to now is     2795.6 secs

     End of band structure calculation

          k = 0.0000 0.0000 0.0000 (144701 PWs)   bands (ev):

   -21.9551 -21.1681 -20.8376 -20.7967 -20.7470 -20.7262 -20.6124 -20.1238
   -19.9533 -19.8061 -19.7931 -19.7551 -19.6557 -19.4850 -19.4657 -19.3623
   -19.3361 -19.3223 -19.0885 -18.7345 -18.5121 -18.4086 -18.3603 -18.3327
   -18.3326 -18.3023 -18.2967 -18.2771 -18.2689 -18.2594 -18.2223 -18.1533
   -18.1328 -17.7360 -17.6508 -15.6255 -13.1744 -12.5400 -12.5304 -12.2249
   -12.0338 -11.7849 -11.7774 -11.7391 -11.7387 -11.7037 -11.6876 -11.6861
   -11.6613 -11.6012 -11.5851 -11.5559 -11.5004 -11.0059 -10.7796 -10.6735
   -10.6100 -10.5670 -10.5002 -10.4389 -10.3955  -9.6409  -9.4454  -9.2210
    -9.2112  -9.1728  -9.1685  -9.1283  -9.1212  -9.0343  -9.0240  -9.0111
    -8.9894  -8.9826  -8.9721  -8.9572  -8.9495  -8.9003  -8.7960  -8.6043
    -8.4892  -8.2109  -8.1943  -8.1508  -8.1260  -8.0500  -8.0100  -7.8504
    -7.8252  -7.7157  -7.6837  -7.6344  -7.6248  -7.5293  -7.5037  -7.3789
    -7.3177  -7.3072  -7.2507  -7.2297  -7.1269  -7.1029  -7.0176  -7.0080
    -6.9959  -6.9538  -6.8816  -6.8414  -6.8342  -6.8292  -6.7929  -6.6953
    -6.4752  -6.3697  -6.2661  -6.2329  -6.2114  -6.1879  -6.0289  -6.0018
    -5.9417  -5.8982  -5.8940  -5.8410  -5.3842  -4.9983  -4.9682  -4.9475
    -4.7772  -4.7570  -4.7328  -4.7192  -4.7014  -4.6886  -4.6672  -4.6598
    -4.6398  -4.5879  -4.5786  -4.5292  -4.4793  -3.9611  -3.6587  -3.1642
     0.3889   1.0502   1.0891   1.1198   1.1785   1.1967   1.4743   1.7287
     1.8005   1.8048   1.8203   1.8388   1.8714   1.8854   1.9018   1.9030
     1.9315   1.9421   1.9587   1.9871   1.9949   2.0011   2.0528   2.0687
     2.0822   2.4870   2.8443   2.8514   2.8651   2.8891   2.8955   2.9461
     3.2671   3.3515   3.3559   3.3594   3.3642   3.3744   3.3793   3.3963
     3.4005   3.4410   3.4547   3.5711   3.6845   3.6908   3.6977   3.7127
     3.7234   3.7520   3.9829   3.9920   4.0365   4.0437   4.0655   4.0778
     4.3171   4.4114   4.4258   4.4334   4.4496   4.4548   4.5107   4.7027
     4.8248   4.8287   4.8421   4.8621   4.8667   4.9965   5.1276   5.1294
     5.1301   5.1326   5.1357   5.1420   5.2365   5.3244   5.3505   5.3546
     5.3791   5.4528   5.4726   5.5355   5.5420   5.5618   5.5753   5.6082
     5.6382   5.7592   5.8067   5.8068   5.8119   5.8159   5.8230   5.9162
     5.9335   5.9417   5.9455   5.9602   5.9710   6.0650   6.1944   6.5272
     6.6678   6.8186   6.8706   6.8758   6.8853   6.8916   6.9064   6.9068
     6.9189   6.9203   6.9211   6.9344   6.9509   6.9536   6.9611   6.9797
     6.9866   7.0535   7.0644   7.0649   7.0763   7.0834   7.0903   7.1272
     7.1595   7.1903   7.2157   7.2254   7.2268   7.2487   7.2625   7.2731
     7.2815   7.2861   7.3382   7.3386   7.4304   7.4707   7.4897   7.5886
     7.5929   7.6751   7.7505   7.7838   7.7857   7.7900   7.7961   7.8018
     7.8387   7.8959   7.9432   8.0491   8.0852   8.0911   8.0944   8.0992
     8.1052   8.1166   8.1255   8.1343   8.1385   8.1461   8.1595   8.1881
     8.3719   8.4357   8.4442   8.4675   8.4681   8.4749   8.4811   8.4865
     8.4870   8.4923   8.4938   8.4948   8.4987   8.5012   8.5082   8.5133
     8.5519   8.6565   8.6640   8.7014   8.7081   8.7757   8.7996   8.8042
     8.8083   8.8566   8.8734   8.8791   8.9088   8.9578   8.9779   8.9876
     8.9946   9.0087   9.0269   9.0345   9.0409   9.0426   9.0440   9.0612
     9.0682   9.0822   9.0917   9.0967   9.1489   9.2088   9.2389   9.2519
     9.2767   9.2817   9.2889   9.2933   9.3035   9.3160   9.4075   9.5454
     9.5531   9.5766   9.6971   9.7350   9.7431   9.8013   9.8449   9.9007
     9.9321   9.9363   9.9390   9.9444   9.9498   9.9548   9.9644   9.9691
     9.9777   9.9805   9.9836   9.9886   9.9906  10.0407  10.0546  10.0556
    10.1060  10.1212  10.1285  10.1328  10.1330  10.1822  10.2231  10.2287
    10.3202  10.3452  10.3545  10.3547  10.3728  10.3768  10.4050  10.4096
    10.4097  10.4983  10.5045  10.5046  10.6016  10.7903  10.7985  10.8005
    10.8042  10.8086  10.8115  10.8258  10.8284  10.8353  10.8793  10.9028
    10.9099  11.0484  11.0630  11.0669  11.0990  11.0999  11.1042  11.1146
    11.1377  11.4594  11.5268  11.5280  11.5614  11.5706  11.5920  11.6442
    11.6665  11.6811  11.6828  11.6829  11.6912  11.6976  11.6993  11.7088
    11.7105  11.7193  11.7197  11.7221  11.7334  11.7341  11.7502  11.7549
    11.7633  11.7688  11.7922  11.8115  11.8278  11.8338  11.8515  11.8674
    11.8683  11.8773  11.8841  11.8999  11.9152  11.9169  11.9187  11.9234
    11.9260  11.9459  11.9489  11.9665  11.9835  12.0602  12.0905  12.1659
    12.1733  12.1928  12.1952  12.3613  12.3752  12.4075  12.4325  12.4411
    12.7412  12.7516  12.8087  12.8129  12.8214  12.8224  12.8261  12.9497
    12.9508  13.0332  13.0884  13.0896  13.3526  13.3537  13.4353  13.5301
    13.5322  13.5358  13.5514  13.5558  13.5756  13.5810  13.6047  13.6139
    13.6187  13.6206  13.6219  13.6224  13.6246  13.6252  13.6291  13.6301
    13.6321  13.6454  13.6619  13.6674  13.6769  13.6792  13.6882  13.6886
    13.6925  13.6936  13.6954  13.6985  13.6987  13.7037  13.7113  13.7270
    13.7396  13.7987  13.9775  14.0004  14.1415  14.2219  14.2375  14.2596
    14.2624  14.2926  14.2931  14.2945  14.2966  14.3025  14.3098  14.3143
    14.3151  14.3185  14.3187  14.3198  14.3210  14.3295  14.3311  14.3318
    14.3431  14.3450  14.3533  14.3984  14.4197  14.4693  14.4753  14.4822
    14.5519  14.5624  14.5631  14.5688  14.5699  14.5745  14.5770  14.5809
    14.5850  14.5868  14.5928  14.5959  14.6010  14.6063  14.6210  14.6270
    14.6303  14.6454  14.7193  14.7204  14.7500  14.7603  14.8380  14.8454
    14.8550  14.8560  14.8889  14.9095  14.9231  14.9365  15.0099  15.0117
    15.0380  15.1044  15.1045  15.1219  15.1462  15.1573  15.1702  15.1722
    15.1854  15.2007  15.2232  15.2496  15.2587  15.2722  15.2737  15.2865
    15.3285  15.3384  15.4013  15.4314  15.4740  15.5625  15.5671  15.6311
    15.6607  15.6612  15.7044  15.7046  15.9910  15.9933  16.0032  16.0032
    16.0076  16.0122  16.0159  16.0171  16.0230  16.0275  16.0328  16.0409
    16.0519  16.0699  16.0753  16.0954  16.1042  16.1051  16.1321  16.1727
    16.1730  16.1766  16.1850  16.1865  16.4017  16.4185  16.4332  16.4350
    16.4604  16.4671  16.4683  16.4789  16.4813  16.4824  16.4827  16.4969
    16.5024  16.5153  16.5193  16.5256  16.5299  16.5327  16.5568  16.5667
    16.6038  16.6272  16.6451  16.7998  16.8011  16.8048  16.8067  16.8113
    16.8344  16.8556  16.8757  16.8822  16.9061  16.9088  16.9274  16.9580
    16.9626  17.5120  17.5431  17.5444  17.5469  17.5493  17.5538  17.7005
    17.7397  17.7400  17.7482  17.7550  17.7728  17.8221  17.8567  17.8801
    17.8851  17.8879  17.9008  17.9030  17.9072  17.9137  17.9295  17.9313
    17.9342  17.9403  17.9540  17.9596  17.9605  17.9758  17.9762  18.1654
    18.1991  18.2349  18.2375  18.2389  18.2443  18.2494  18.2560  18.2647
    18.2655  18.2721  18.2745  18.2896  18.3547  18.3813  18.4060  18.5070
    18.5137  18.5493  18.5539  18.5617  18.5724  18.5760  18.5818  18.5872
    18.6094  18.6602  18.7348  18.7508  18.7872  18.8480  18.8625  18.8747
    18.9033  18.9132  18.9727  18.9761  18.9817  18.9830  18.9871  18.9878
    18.9924  18.9938  19.0022  19.0039  19.0103  19.0197  19.0298  19.0546
    19.0670  19.1003  19.1533  19.3799  19.3813  19.3813  19.3837  19.3880
    19.3890  19.3892  19.3901  19.3934  19.3949  19.3997  19.4010  19.4026
    19.4038  19.4058  19.4074  19.4108  19.4224  19.5345  19.5987  19.5994
    19.6149  19.6187  19.6287  19.6330  19.6539  19.7450  19.7514  19.7657
    19.8265  19.8270  19.8421  19.8497  19.8497  19.8528  19.8581  19.8610
    19.8620  19.8633  19.8639  19.8653  19.8721  19.8747  19.8782  19.8794
    19.8798  19.8832  19.9177  19.9301  19.9386  19.9404  19.9437  19.9724
    19.9884  20.0028  20.0102  20.0269  20.0272  20.0282  20.0297  20.0322
    20.0402  20.0451  20.0491  20.0578  20.0757  20.0848  20.0927  20.0986
    20.1083  20.1519  20.2329  20.2571  20.2988  20.3010  20.3183  20.3303
    20.3451  20.3543  20.6055  20.6071  20.6168  20.6497  20.6562  20.6662
    20.8702  20.8984  20.9038  20.9040  20.9137  20.9186  21.0643  21.0992
    21.1097  21.1152  21.1179  21.1194  21.1210  21.1617  21.1695  21.1703
    21.1711  21.1734  21.2069  21.2351  21.2358  21.2503  21.2635  21.2732
    21.2801  21.2819  21.2977  21.3013  21.3058  21.3106  21.3120  21.3149
    21.3212  21.3278  21.3308  21.3369  21.3400  21.3413  21.3456  21.3643
    21.3750  21.3811  21.4004  21.4029  21.4090  21.4091  21.4110  21.4256
    21.4263  21.4330  21.4350  21.4397  21.4484  21.4585  21.4595  21.4762
    21.4823  21.5645  21.5732  21.5754  21.5758  21.5772  21.6016  21.7854
    21.8056  21.8256  21.8293  21.8314  21.8392  21.8608  21.8769  21.8947
    21.9212  21.9305  21.9430  21.9470  21.9501  21.9568  21.9609  21.9751
    22.0043  22.0243  22.2219  22.2250  22.2355  22.2401  22.2525  22.2909
    22.3338  22.3373  22.3381  22.3426  22.3571  22.4074  22.4140  22.4716
    22.5025  22.5296  22.5413  22.7255  22.7349  22.7733  22.7943  22.8023
    22.8043  22.8070  22.8099  22.8119  22.8329  22.8371  22.8475  22.8959
    22.8979  22.9466  23.1002  23.1162  23.1381  23.1429  23.1451  23.1511
    23.1566  23.1612  23.1621  23.1627  23.1743  23.1760  23.1828  23.1859
    23.1867  23.2003  23.2168  23.2305  23.2485  23.2523  23.2594  23.2790
    23.2918  23.2946  23.2981  23.3564  23.5012  23.5120  23.5144  23.5147
    23.5196  23.5197  23.5301  23.5483  23.5490  23.5494  23.5508  23.5541
    23.5559  23.5710  23.6358  23.7481  23.7690  23.7691  23.7762  23.7806
    23.8015  23.8023  23.8118  23.8299  23.8413  23.8491  23.8812  23.9164
    23.9575  23.9942  24.0008  24.0260  24.0469  24.0527  24.0596  24.0704
    24.0904  24.1014  24.1043  24.1060  24.1063  24.1170  24.1308  24.1575
    24.1763  24.2539  24.2665  24.4188  24.4300  24.4310  24.4332  24.4362
    24.4424  24.4492  24.4528  24.4639  24.4740  24.4858  24.6543  24.6583
    24.6617  24.6692  24.6692  24.6744  24.7075  24.7138  24.7192  24.7763
    24.7772  24.7908  24.8405  24.8444  24.8487  24.8680  24.8744  24.8763
    24.8795  24.8817  24.8862  24.8869  24.8903  24.8909  24.9345  24.9395
    25.0756  25.0973  25.1554  25.1555  25.2251  25.3087  25.3195  25.3243
    25.3258  25.3304  25.3314  25.3424  25.3469  25.3487  25.3532  25.3654
    25.3660  25.3878  25.4159  25.4360  25.4704  25.4855  25.5383  25.5500
    25.5517  25.5681  25.5712  25.5755  25.5794  25.5845  25.5923  25.5951
    25.6537  25.6560  25.6929  25.7016  25.7189  25.7234  25.7525  25.7828
    25.7879  25.7892  25.7936  25.8049  25.8072  25.8085  25.8142  25.8241
    25.8242  25.8325  25.8343  25.8484  25.8537  25.9024  25.9603  25.9708
    25.9715  25.9797  25.9818  25.9900  25.9941  25.9983  26.0032  26.0063
    26.0124  26.0187  26.0235  26.0314  26.0339  26.0429  26.0731  26.2283
    26.2443  26.2507  26.2541  26.2554  26.2972  26.3283  26.3347  26.3557
    26.3559  26.3571  26.3681  26.3857  26.3983  26.4255  26.4260  26.4268
    26.5509  26.5526  26.5534  26.7715  26.7727  26.7913  26.8031  26.8191
    26.8235  27.0164  27.0375  27.0457  27.0460  27.0539  27.0576  27.0751
    27.1125  27.1157  27.1195  27.1213  27.1396  27.1944  27.1971  27.2214
    27.2228  27.2273  27.2304  27.2323  27.2323  27.2324  27.2365  27.2378
    27.2399  27.2432  27.2435  27.2436  27.2443  27.2449  27.2497  27.2514
    27.2528  27.2558  27.2570  27.2623  27.2665  27.2687  27.2717  27.2722
    27.2784  27.2824  27.2866  27.2876  27.2986  27.2995  27.3043  27.3083
    27.3086  27.3101  27.3107  27.3127  27.3144  27.3229  27.3530  27.3852
    27.3943  27.3983  27.4018  27.4022  27.4307  27.4567  27.4660  27.4665
    27.4752  27.4762  27.4842  27.5040  27.5084  27.5126  27.5198  27.5202
    27.5215  27.5220  27.5275  27.5391  27.7607  27.7916  27.8666  27.8681
    27.8693  27.8880  27.8886  27.9383  27.9416  28.0186  28.0221  28.0445
    28.0456  28.0608  28.0889  28.1414  28.1418  28.1704  28.1786  28.1806
    28.1918  28.1950  28.2054  28.2093  28.3139  28.4434  28.4503  28.4504
    28.4544  28.4604  28.4631  28.4645  28.4772  28.4848  28.4889  28.4963
    28.4992  28.5029  28.5285  28.5326  28.5565  28.5573  28.5785  28.5867
    28.6158  28.6502  28.6505  28.6525  28.6970  28.7096  28.7148  28.7266
    28.7360  28.7575  28.7651  28.7685  28.7718  28.7765  28.7791  28.8066
    28.8550  28.8575  28.8632  29.0515  29.0860  29.0934  29.1013  29.1331
    29.1693  29.1908  29.1913  29.1950  29.1974  29.2052  29.2143  29.2202
    29.3612  29.3632  29.3677  29.3700  29.3766  29.3775  29.5259  29.5269
    29.5299  29.5329  29.5351  29.5354  29.6082  29.6150  29.6168  29.8495
    29.8635  29.8830  29.8837  29.8929  29.8944  29.8944  29.8948  29.8962
    29.8979  29.8981  29.8993  29.9067  29.9107  29.9203  29.9236  29.9346
    29.9392  29.9395  29.9417  29.9448  29.9449  29.9537  29.9565  29.9755
    30.0272  30.0533  30.0561  30.0598  30.0614  30.0637  30.0924  30.0969
    30.1000  30.1025  30.1057  30.1068  30.1113  30.1124  30.1159  30.1195
    30.1214  30.1305  30.4030  30.4102  30.4127  30.4153  30.4176  30.4241
    30.4431  30.4523  30.4940  30.5165  30.5191  30.5225  30.5298  30.5305
    30.5334  30.5373  30.5500  30.5591  30.5610  30.5622  30.5641  30.5673
    30.5678  30.5753  30.5755  30.5796  30.5837  30.5894  30.5932  30.5943
    30.6000  30.6026  30.6030  30.6078  30.6095  30.6164  30.6258  30.6605
    30.7915  30.7958  30.8091  30.8182  30.8290  30.8304  30.8642  30.8973
    30.8992  30.9002  30.9071  30.9222  30.9398  30.9469  30.9529  30.9555
    30.9560  30.9568  31.1334  31.1338  31.1691  31.1969  31.3204  31.3252
    31.3268  31.3276  31.3553  31.5809  31.5974  31.5987  31.6050  31.6125
    31.6207  31.7165  31.7627  31.7649  31.7655  31.7690  31.7695  31.7718
    31.8025  31.8064  31.8374  31.8721  31.8752  31.8772  31.8806  31.8811
    31.8833  31.8881  31.8901  31.8964  31.8985  31.9388  31.9816  31.9831
    31.9947  31.9982  32.0003  32.0008  32.0034  32.0057  32.0091  32.0093
    32.0158  32.0174  32.1016  32.1029  32.1062  32.1108  32.1147  32.1163
    32.1296  32.1332  32.1804  32.1837  32.1944  32.1996  32.2059  32.2428
    32.3566  32.3690  32.3703  32.3732  32.3747  32.3907  32.4508  32.4521
    32.4542  32.4881  32.4937  32.5006  32.5031  32.5169  32.5194  32.5431
    32.5456  32.5526  32.5560  32.5590  32.5660  32.6834  32.7142  32.7153
    32.7211  32.7271  32.7304  32.8145  32.8170  32.8203  32.8413  32.8423
    32.8511  32.8515  32.8595  32.8629  32.8685  32.8773  32.8776  32.8809
    32.8879  32.8886  32.8941  32.8962  32.8974  32.9041  32.9076  32.9133
    32.9181  32.9631  33.1567  33.3070  33.3174  33.3178  33.3235  33.3283
    33.3297  33.3322  33.3443  33.3445  33.3732  33.5014  33.5155  33.5226
    33.5379  33.5426  33.5472  33.5695  33.5703  33.5743  33.5820  33.6015
    33.6133  33.6238  33.6528  33.7123  33.7321  33.7347  33.7401  33.7410
    33.7469  33.7789  33.9601  33.9730  33.9736  33.9812  33.9858  33.9922
    34.0565  34.1705  34.1741  34.1743  34.2021  34.2134  34.2248  34.2392
    34.2686  34.2693  34.2884  34.2967  34.2980  34.2981  34.2993  34.3027
    34.3063  34.3158  34.3240  34.3310  34.3324  34.3417  34.3549  34.3632
    34.3633  34.4334  34.4981  34.5344  34.5351  34.5365  34.5560  34.6315
    34.6350  34.6377  34.6393  34.6451  34.6481  34.6533  34.6587  34.6679
    34.6719  34.6729  34.6911  34.6997  34.7140  34.7161  34.7220  34.7230
    34.7241  34.7381  34.7384  34.7398  34.7462  34.7607  34.7626  34.8132
    35.0364  35.0793  35.0918  35.0982  35.1021  35.1602  35.1636  35.1647
    35.1703  35.1705  35.1727  35.1784  35.1798  35.1818  35.1829  35.1872
    35.1970  35.2883  35.2913  35.3044  35.3148  35.3216  35.3319  35.3429
    35.4030  35.4051  35.4150  35.4224  35.4266  35.4296  35.4885  35.4923
    35.4984  35.5019  35.5044  35.5151  35.5384  35.5420  35.5466  35.5476
    35.5479  35.5584  35.5589  35.5593  35.5641  35.5649  35.5659  35.5689
    35.5702  35.5740  35.5760  35.5781  35.5796  35.5839  35.5854  35.5904
    35.5909  35.5941  35.6015  35.6044  35.6776  35.6840  35.7052  35.7189
    35.7883  35.8059  35.8067  35.8092  35.8111  35.8709  36.0359  36.0686
    36.0709  36.0720  36.0788  36.1182  36.1229  36.1260  36.1295  36.1335
    36.1369  36.1900  36.2050  36.2063  36.4537  36.4703  36.4778  36.4802
    36.4816  36.4864  36.4965  36.5161  36.5172  36.5226  36.5293  36.5334
    36.5350  36.5361  36.5383  36.5422  36.5442  36.5452  36.5477  36.5535
    36.5642  36.5642  36.5676  36.5747  36.5769  36.6061  36.7101  36.7592
    36.7598  36.7637  36.7671  36.7723  36.8349  36.8354  36.8997  36.9019
    36.9100  36.9146  36.9159  36.9201  36.9207  36.9226  36.9236  36.9262
    36.9266  36.9376  36.9411  36.9624  36.9693  37.0001  37.0022  37.0127
    37.0131  37.0146  37.0154  37.0158  37.0243  37.0278  37.0358  37.0430
    37.0959  37.1025  37.2248  37.2450  37.2524  37.2567  37.2622  37.2657

     occupation numbers 
     1.0000   1.0000   1.0000   1.0000   1.0000   1.0000   1.0000   1.0000
     1.0000   1.0000   1.0000   1.0000   1.0000   1.0000   1.0000   1.0000
     1.0000   1.0000   1.0000   1.0000   1.0000   1.0000   1.0000   1.0000
     1.0000   1.0000   1.0000   1.0000   1.0000   1.0000   1.0000   1.0000
     1.0000   1.0000   1.0000   1.0000   1.0000   1.0000   1.0000   1.0000
     1.0000   1.0000   1.0000   1.0000   1.0000   1.0000   1.0000   1.0000
     1.0000   1.0000   1.0000   1.0000   1.0000   1.0000   1.0000   1.0000
     1.0000   1.0000   1.0000   1.0000   1.0000   1.0000   1.0000   1.0000
     1.0000   1.0000   1.0000   1.0000   1.0000   1.0000   1.0000   1.0000
     1.0000   1.0000   1.0000   1.0000   1.0000   1.0000   1.0000   1.0000
     1.0000   1.0000   1.0000   1.0000   1.0000   1.0000   1.0000   1.0000
     1.0000   1.0000   1.0000   1.0000   1.0000   1.0000   1.0000   1.0000
     1.0000   1.0000   1.0000   1.0000   1.0000   1.0000   1.0000   1.0000
     1.0000   1.0000   1.0000   1.0000   1.0000   1.0000   1.0000   1.0000
     1.0000   1.0000   1.0000   1.0000   1.0000   1.0000   1.0000   1.0000
     1.0000   1.0000   1.0000   1.0000   1.0000   1.0000   1.0000   1.0000
     1.0000   1.0000   1.0000   1.0000   1.0000   1.0000   1.0000   1.0000
     1.0000   1.0000   1.0000   1.0000   1.0000   1.0000   1.0000   1.0000
     0.0000   0.0000   0.0000   0.0000   0.0000   0.0000   0.0000   0.0000
     0.0000   0.0000   0.0000   0.0000   0.0000   0.0000   0.0000   0.0000
     0.0000   0.0000   0.0000   0.0000   0.0000   0.0000   0.0000   0.0000
     0.0000   0.0000   0.0000   0.0000   0.0000   0.0000   0.0000   0.0000
     0.0000   0.0000   0.0000   0.0000   0.0000   0.0000   0.0000   0.0000
     0.0000   0.0000   0.0000   0.0000   0.0000   0.0000   0.0000   0.0000
     0.0000   0.0000   0.0000   0.0000   0.0000   0.0000   0.0000   0.0000
     0.0000   0.0000   0.0000   0.0000   0.0000   0.0000   0.0000   0.0000
     0.0000   0.0000   0.0000   0.0000   0.0000   0.0000   0.0000   0.0000
     0.0000   0.0000   0.0000   0.0000   0.0000   0.0000   0.0000   0.0000
     0.0000   0.0000   0.0000   0.0000   0.0000   0.0000   0.0000   0.0000
     0.0000   0.0000   0.0000   0.0000   0.0000   0.0000   0.0000   0.0000
     0.0000   0.0000   0.0000   0.0000   0.0000   0.0000   0.0000   0.0000
     0.0000   0.0000   0.0000   0.0000   0.0000   0.0000   0.0000   0.0000
     0.0000   0.0000   0.0000   0.0000   0.0000   0.0000   0.0000   0.0000
     0.0000   0.0000   0.0000   0.0000   0.0000   0.0000   0.0000   0.0000
     0.0000   0.0000   0.0000   0.0000   0.0000   0.0000   0.0000   0.0000
     0.0000   0.0000   0.0000   0.0000   0.0000   0.0000   0.0000   0.0000
     0.0000   0.0000   0.0000   0.0000   0.0000   0.0000   0.0000   0.0000
     0.0000   0.0000   0.0000   0.0000   0.0000   0.0000   0.0000   0.0000
     0.0000   0.0000   0.0000   0.0000   0.0000   0.0000   0.0000   0.0000
     0.0000   0.0000   0.0000   0.0000   0.0000   0.0000   0.0000   0.0000
     0.0000   0.0000   0.0000   0.0000   0.0000   0.0000   0.0000   0.0000
     0.0000   0.0000   0.0000   0.0000   0.0000   0.0000   0.0000   0.0000
     0.0000   0.0000   0.0000   0.0000   0.0000   0.0000   0.0000   0.0000
     0.0000   0.0000   0.0000   0.0000   0.0000   0.0000   0.0000   0.0000
     0.0000   0.0000   0.0000   0.0000   0.0000   0.0000   0.0000   0.0000
     0.0000   0.0000   0.0000   0.0000   0.0000   0.0000   0.0000   0.0000
     0.0000   0.0000   0.0000   0.0000   0.0000   0.0000   0.0000   0.0000
     0.0000   0.0000   0.0000   0.0000   0.0000   0.0000   0.0000   0.0000
     0.0000   0.0000   0.0000   0.0000   0.0000   0.0000   0.0000   0.0000
     0.0000   0.0000   0.0000   0.0000   0.0000   0.0000   0.0000   0.0000
     0.0000   0.0000   0.0000   0.0000   0.0000   0.0000   0.0000   0.0000
     0.0000   0.0000   0.0000   0.0000   0.0000   0.0000   0.0000   0.0000
     0.0000   0.0000   0.0000   0.0000   0.0000   0.0000   0.0000   0.0000
     0.0000   0.0000   0.0000   0.0000   0.0000   0.0000   0.0000   0.0000
     0.0000   0.0000   0.0000   0.0000   0.0000   0.0000   0.0000   0.0000
     0.0000   0.0000   0.0000   0.0000   0.0000   0.0000   0.0000   0.0000
     0.0000   0.0000   0.0000   0.0000   0.0000   0.0000   0.0000   0.0000
     0.0000   0.0000   0.0000   0.0000   0.0000   0.0000   0.0000   0.0000
     0.0000   0.0000   0.0000   0.0000   0.0000   0.0000   0.0000   0.0000
     0.0000   0.0000   0.0000   0.0000   0.0000   0.0000   0.0000   0.0000
     0.0000   0.0000   0.0000   0.0000   0.0000   0.0000   0.0000   0.0000
     0.0000   0.0000   0.0000   0.0000   0.0000   0.0000   0.0000   0.0000
     0.0000   0.0000   0.0000   0.0000   0.0000   0.0000   0.0000   0.0000
     0.0000   0.0000   0.0000   0.0000   0.0000   0.0000   0.0000   0.0000
     0.0000   0.0000   0.0000   0.0000   0.0000   0.0000   0.0000   0.0000
     0.0000   0.0000   0.0000   0.0000   0.0000   0.0000   0.0000   0.0000
     0.0000   0.0000   0.0000   0.0000   0.0000   0.0000   0.0000   0.0000
     0.0000   0.0000   0.0000   0.0000   0.0000   0.0000   0.0000   0.0000
     0.0000   0.0000   0.0000   0.0000   0.0000   0.0000   0.0000   0.0000
     0.0000   0.0000   0.0000   0.0000   0.0000   0.0000   0.0000   0.0000
     0.0000   0.0000   0.0000   0.0000   0.0000   0.0000   0.0000   0.0000
     0.0000   0.0000   0.0000   0.0000   0.0000   0.0000   0.0000   0.0000
     0.0000   0.0000   0.0000   0.0000   0.0000   0.0000   0.0000   0.0000
     0.0000   0.0000   0.0000   0.0000   0.0000   0.0000   0.0000   0.0000
     0.0000   0.0000   0.0000   0.0000   0.0000   0.0000   0.0000   0.0000
     0.0000   0.0000   0.0000   0.0000   0.0000   0.0000   0.0000   0.0000
     0.0000   0.0000   0.0000   0.0000   0.0000   0.0000   0.0000   0.0000
     0.0000   0.0000   0.0000   0.0000   0.0000   0.0000   0.0000   0.0000
     0.0000   0.0000   0.0000   0.0000   0.0000   0.0000   0.0000   0.0000
     0.0000   0.0000   0.0000   0.0000   0.0000   0.0000   0.0000   0.0000
     0.0000   0.0000   0.0000   0.0000   0.0000   0.0000   0.0000   0.0000
     0.0000   0.0000   0.0000   0.0000   0.0000   0.0000   0.0000   0.0000
     0.0000   0.0000   0.0000   0.0000   0.0000   0.0000   0.0000   0.0000
     0.0000   0.0000   0.0000   0.0000   0.0000   0.0000   0.0000   0.0000
     0.0000   0.0000   0.0000   0.0000   0.0000   0.0000   0.0000   0.0000
     0.0000   0.0000   0.0000   0.0000   0.0000   0.0000   0.0000   0.0000
     0.0000   0.0000   0.0000   0.0000   0.0000   0.0000   0.0000   0.0000
     0.0000   0.0000   0.0000   0.0000   0.0000   0.0000   0.0000   0.0000
     0.0000   0.0000   0.0000   0.0000   0.0000   0.0000   0.0000   0.0000
     0.0000   0.0000   0.0000   0.0000   0.0000   0.0000   0.0000   0.0000
     0.0000   0.0000   0.0000   0.0000   0.0000   0.0000   0.0000   0.0000
     0.0000   0.0000   0.0000   0.0000   0.0000   0.0000   0.0000   0.0000
     0.0000   0.0000   0.0000   0.0000   0.0000   0.0000   0.0000   0.0000
     0.0000   0.0000   0.0000   0.0000   0.0000   0.0000   0.0000   0.0000
     0.0000   0.0000   0.0000   0.0000   0.0000   0.0000   0.0000   0.0000
     0.0000   0.0000   0.0000   0.0000   0.0000   0.0000   0.0000   0.0000
     0.0000   0.0000   0.0000   0.0000   0.0000   0.0000   0.0000   0.0000
     0.0000   0.0000   0.0000   0.0000   0.0000   0.0000   0.0000   0.0000
     0.0000   0.0000   0.0000   0.0000   0.0000   0.0000   0.0000   0.0000
     0.0000   0.0000   0.0000   0.0000   0.0000   0.0000   0.0000   0.0000
     0.0000   0.0000   0.0000   0.0000   0.0000   0.0000   0.0000   0.0000
     0.0000   0.0000   0.0000   0.0000   0.0000   0.0000   0.0000   0.0000
     0.0000   0.0000   0.0000   0.0000   0.0000   0.0000   0.0000   0.0000
     0.0000   0.0000   0.0000   0.0000   0.0000   0.0000   0.0000   0.0000
     0.0000   0.0000   0.0000   0.0000   0.0000   0.0000   0.0000   0.0000
     0.0000   0.0000   0.0000   0.0000   0.0000   0.0000   0.0000   0.0000
     0.0000   0.0000   0.0000   0.0000   0.0000   0.0000   0.0000   0.0000
     0.0000   0.0000   0.0000   0.0000   0.0000   0.0000   0.0000   0.0000
     0.0000   0.0000   0.0000   0.0000   0.0000   0.0000   0.0000   0.0000
     0.0000   0.0000   0.0000   0.0000   0.0000   0.0000   0.0000   0.0000
     0.0000   0.0000   0.0000   0.0000   0.0000   0.0000   0.0000   0.0000
     0.0000   0.0000   0.0000   0.0000   0.0000   0.0000   0.0000   0.0000
     0.0000   0.0000   0.0000   0.0000   0.0000   0.0000   0.0000   0.0000
     0.0000   0.0000   0.0000   0.0000   0.0000   0.0000   0.0000   0.0000
     0.0000   0.0000   0.0000   0.0000   0.0000   0.0000   0.0000   0.0000
     0.0000   0.0000   0.0000   0.0000   0.0000   0.0000   0.0000   0.0000
     0.0000   0.0000   0.0000   0.0000   0.0000   0.0000   0.0000   0.0000
     0.0000   0.0000   0.0000   0.0000   0.0000   0.0000   0.0000   0.0000
     0.0000   0.0000   0.0000   0.0000   0.0000   0.0000   0.0000   0.0000
     0.0000   0.0000   0.0000   0.0000   0.0000   0.0000   0.0000   0.0000
     0.0000   0.0000   0.0000   0.0000   0.0000   0.0000   0.0000   0.0000
     0.0000   0.0000   0.0000   0.0000   0.0000   0.0000   0.0000   0.0000
     0.0000   0.0000   0.0000   0.0000   0.0000   0.0000   0.0000   0.0000
     0.0000   0.0000   0.0000   0.0000   0.0000   0.0000   0.0000   0.0000
     0.0000   0.0000   0.0000   0.0000   0.0000   0.0000   0.0000   0.0000
     0.0000   0.0000   0.0000   0.0000   0.0000   0.0000   0.0000   0.0000
     0.0000   0.0000   0.0000   0.0000   0.0000   0.0000   0.0000   0.0000
     0.0000   0.0000   0.0000   0.0000   0.0000   0.0000   0.0000   0.0000
     0.0000   0.0000   0.0000   0.0000   0.0000   0.0000   0.0000   0.0000
     0.0000   0.0000   0.0000   0.0000   0.0000   0.0000   0.0000   0.0000
     0.0000   0.0000   0.0000   0.0000   0.0000   0.0000   0.0000   0.0000
     0.0000   0.0000   0.0000   0.0000   0.0000   0.0000   0.0000   0.0000
     0.0000   0.0000   0.0000   0.0000   0.0000   0.0000   0.0000   0.0000
     0.0000   0.0000   0.0000   0.0000   0.0000   0.0000   0.0000   0.0000
     0.0000   0.0000   0.0000   0.0000   0.0000   0.0000   0.0000   0.0000
     0.0000   0.0000   0.0000   0.0000   0.0000   0.0000   0.0000   0.0000
     0.0000   0.0000   0.0000   0.0000   0.0000   0.0000   0.0000   0.0000
     0.0000   0.0000   0.0000   0.0000   0.0000   0.0000   0.0000   0.0000
     0.0000   0.0000   0.0000   0.0000   0.0000   0.0000   0.0000   0.0000
     0.0000   0.0000   0.0000   0.0000   0.0000   0.0000   0.0000   0.0000
     0.0000   0.0000   0.0000   0.0000   0.0000   0.0000   0.0000   0.0000
     0.0000   0.0000   0.0000   0.0000   0.0000   0.0000   0.0000   0.0000
     0.0000   0.0000   0.0000   0.0000   0.0000   0.0000   0.0000   0.0000
     0.0000   0.0000   0.0000   0.0000   0.0000   0.0000   0.0000   0.0000
     0.0000   0.0000   0.0000   0.0000   0.0000   0.0000   0.0000   0.0000
     0.0000   0.0000   0.0000   0.0000   0.0000   0.0000   0.0000   0.0000
     0.0000   0.0000   0.0000   0.0000   0.0000   0.0000   0.0000   0.0000
     0.0000   0.0000   0.0000   0.0000   0.0000   0.0000   0.0000   0.0000
     0.0000   0.0000   0.0000   0.0000   0.0000   0.0000   0.0000   0.0000
     0.0000   0.0000   0.0000   0.0000   0.0000   0.0000   0.0000   0.0000
     0.0000   0.0000   0.0000   0.0000   0.0000   0.0000   0.0000   0.0000
     0.0000   0.0000   0.0000   0.0000   0.0000   0.0000   0.0000   0.0000
     0.0000   0.0000   0.0000   0.0000   0.0000   0.0000   0.0000   0.0000
     0.0000   0.0000   0.0000   0.0000   0.0000   0.0000   0.0000   0.0000
     0.0000   0.0000   0.0000   0.0000   0.0000   0.0000   0.0000   0.0000
     0.0000   0.0000   0.0000   0.0000   0.0000   0.0000   0.0000   0.0000
     0.0000   0.0000   0.0000   0.0000   0.0000   0.0000   0.0000   0.0000
     0.0000   0.0000   0.0000   0.0000   0.0000   0.0000   0.0000   0.0000
     0.0000   0.0000   0.0000   0.0000   0.0000   0.0000   0.0000   0.0000
     0.0000   0.0000   0.0000   0.0000   0.0000   0.0000   0.0000   0.0000
     0.0000   0.0000   0.0000   0.0000   0.0000   0.0000   0.0000   0.0000
     0.0000   0.0000   0.0000   0.0000   0.0000   0.0000   0.0000   0.0000
     0.0000   0.0000   0.0000   0.0000   0.0000   0.0000   0.0000   0.0000
     0.0000   0.0000   0.0000   0.0000   0.0000   0.0000   0.0000   0.0000
     0.0000   0.0000   0.0000   0.0000   0.0000   0.0000   0.0000   0.0000
     0.0000   0.0000   0.0000   0.0000   0.0000   0.0000   0.0000   0.0000
     0.0000   0.0000   0.0000   0.0000   0.0000   0.0000   0.0000   0.0000
     0.0000   0.0000   0.0000   0.0000   0.0000   0.0000   0.0000   0.0000
     0.0000   0.0000   0.0000   0.0000   0.0000   0.0000   0.0000   0.0000
     0.0000   0.0000   0.0000   0.0000   0.0000   0.0000   0.0000   0.0000
     0.0000   0.0000   0.0000   0.0000   0.0000   0.0000   0.0000   0.0000
     0.0000   0.0000   0.0000   0.0000   0.0000   0.0000   0.0000   0.0000
     0.0000   0.0000   0.0000   0.0000   0.0000   0.0000   0.0000   0.0000
     0.0000   0.0000   0.0000   0.0000   0.0000   0.0000   0.0000   0.0000
     0.0000   0.0000   0.0000   0.0000   0.0000   0.0000   0.0000   0.0000
     0.0000   0.0000   0.0000   0.0000   0.0000   0.0000   0.0000   0.0000
     0.0000   0.0000   0.0000   0.0000   0.0000   0.0000   0.0000   0.0000
     0.0000   0.0000   0.0000   0.0000   0.0000   0.0000   0.0000   0.0000
     0.0000   0.0000   0.0000   0.0000   0.0000   0.0000   0.0000   0.0000
     0.0000   0.0000   0.0000   0.0000   0.0000   0.0000   0.0000   0.0000
     0.0000   0.0000   0.0000   0.0000   0.0000   0.0000   0.0000   0.0000
     0.0000   0.0000   0.0000   0.0000   0.0000   0.0000   0.0000   0.0000
     0.0000   0.0000   0.0000   0.0000   0.0000   0.0000   0.0000   0.0000
     0.0000   0.0000   0.0000   0.0000   0.0000   0.0000   0.0000   0.0000
     0.0000   0.0000   0.0000   0.0000   0.0000   0.0000   0.0000   0.0000
     0.0000   0.0000   0.0000   0.0000   0.0000   0.0000   0.0000   0.0000
     0.0000   0.0000   0.0000   0.0000   0.0000   0.0000   0.0000   0.0000
     0.0000   0.0000   0.0000   0.0000   0.0000   0.0000   0.0000   0.0000
     0.0000   0.0000   0.0000   0.0000   0.0000   0.0000   0.0000   0.0000
     0.0000   0.0000   0.0000   0.0000   0.0000   0.0000   0.0000   0.0000
     0.0000   0.0000   0.0000   0.0000   0.0000   0.0000   0.0000   0.0000
     0.0000   0.0000   0.0000   0.0000   0.0000   0.0000   0.0000   0.0000
     0.0000   0.0000   0.0000   0.0000   0.0000   0.0000   0.0000   0.0000
     0.0000   0.0000   0.0000   0.0000   0.0000   0.0000   0.0000   0.0000
     0.0000   0.0000   0.0000   0.0000   0.0000   0.0000   0.0000   0.0000
     0.0000   0.0000   0.0000   0.0000   0.0000   0.0000   0.0000   0.0000
     0.0000   0.0000   0.0000   0.0000   0.0000   0.0000   0.0000   0.0000
     0.0000   0.0000   0.0000   0.0000   0.0000   0.0000   0.0000   0.0000
     0.0000   0.0000   0.0000   0.0000   0.0000   0.0000   0.0000   0.0000
     0.0000   0.0000   0.0000   0.0000   0.0000   0.0000   0.0000   0.0000
     0.0000   0.0000   0.0000   0.0000   0.0000   0.0000   0.0000   0.0000
     0.0000   0.0000   0.0000   0.0000   0.0000   0.0000   0.0000   0.0000
     0.0000   0.0000   0.0000   0.0000   0.0000   0.0000   0.0000   0.0000
     0.0000   0.0000   0.0000   0.0000   0.0000   0.0000   0.0000   0.0000
     0.0000   0.0000   0.0000   0.0000   0.0000   0.0000   0.0000   0.0000
     0.0000   0.0000   0.0000   0.0000   0.0000   0.0000   0.0000   0.0000
     0.0000   0.0000   0.0000   0.0000   0.0000   0.0000   0.0000   0.0000
     0.0000   0.0000   0.0000   0.0000   0.0000   0.0000   0.0000   0.0000
     0.0000   0.0000   0.0000   0.0000   0.0000   0.0000   0.0000   0.0000
     0.0000   0.0000   0.0000   0.0000   0.0000   0.0000   0.0000   0.0000
     0.0000   0.0000   0.0000   0.0000   0.0000   0.0000   0.0000   0.0000
     0.0000   0.0000   0.0000   0.0000   0.0000   0.0000   0.0000   0.0000
     0.0000   0.0000   0.0000   0.0000   0.0000   0.0000   0.0000   0.0000
     0.0000   0.0000   0.0000   0.0000   0.0000   0.0000   0.0000   0.0000
     0.0000   0.0000   0.0000   0.0000   0.0000   0.0000   0.0000   0.0000
     0.0000   0.0000   0.0000   0.0000   0.0000   0.0000   0.0000   0.0000
     0.0000   0.0000   0.0000   0.0000   0.0000   0.0000   0.0000   0.0000
     0.0000   0.0000   0.0000   0.0000   0.0000   0.0000   0.0000   0.0000
     0.0000   0.0000   0.0000   0.0000   0.0000   0.0000   0.0000   0.0000
     0.0000   0.0000   0.0000   0.0000   0.0000   0.0000   0.0000   0.0000
     0.0000   0.0000   0.0000   0.0000   0.0000   0.0000   0.0000   0.0000
     0.0000   0.0000   0.0000   0.0000   0.0000   0.0000   0.0000   0.0000
     0.0000   0.0000   0.0000   0.0000   0.0000   0.0000   0.0000   0.0000
     0.0000   0.0000   0.0000   0.0000   0.0000   0.0000   0.0000   0.0000
     0.0000   0.0000   0.0000   0.0000   0.0000   0.0000   0.0000   0.0000

          k = 0.0000 0.3849 0.0000 (144706 PWs)   bands (ev):

   -21.9538 -21.1583 -20.9843 -20.8335 -20.7015 -20.5198 -20.4037 -20.3232
   -20.1644 -19.9574 -19.8391 -19.6980 -19.6254 -19.5451 -19.4200 -19.2533
   -19.1026 -19.0638 -18.9308 -18.8367 -18.7622 -18.7055 -18.5781 -18.4593
   -18.4231 -18.3326 -18.2910 -18.2438 -18.1916 -18.1635 -18.0684 -17.9787
   -17.9385 -17.7881 -17.7279 -15.6238 -13.1558 -12.4354 -12.3891 -12.2831
   -12.1774 -12.1319 -12.1042 -11.8882 -11.8439 -11.7560 -11.6996 -11.5614
   -11.5180 -11.4431 -11.3665 -11.3048 -11.1075 -11.0425 -11.0078 -10.9140
   -10.5992 -10.4257 -10.2489 -10.0837  -9.9995  -9.9487  -9.8965  -9.7434
    -9.5622  -9.5311  -9.4276  -9.3772  -9.3312  -9.1685  -9.0883  -8.9193
    -8.8320  -8.6699  -8.6310  -8.5988  -8.4713  -8.4062  -8.3734  -8.3604
    -8.3181  -8.2726  -8.2584  -8.2166  -8.1470  -8.0986  -8.0015  -7.9765
    -7.9312  -7.8266  -7.7792  -7.7051  -7.6422  -7.6319  -7.6094  -7.5637
    -7.5139  -7.4869  -7.4497  -7.3639  -7.3627  -7.2699  -7.0779  -7.0112
    -6.9289  -6.8666  -6.8326  -6.7566  -6.7179  -6.5963  -6.5681  -6.4905
    -6.4775  -6.3795  -6.2741  -6.2286  -6.1896  -6.0967  -5.9378  -5.8421
    -5.8043  -5.7307  -5.5563  -5.5225  -5.4577  -5.3870  -5.3763  -5.2857
    -5.1667  -5.1451  -4.8558  -4.8132  -4.7312  -4.6757  -4.6703  -4.6086
    -4.5577  -4.4393  -4.3093  -4.2164  -4.1591  -3.9475  -3.8026  -3.2044
     0.3998   1.1410   1.1902   1.1999   1.2606   1.2749   1.3232   1.3978
     1.4737   1.4907   1.5080   1.5650   1.5927   1.7763   1.8126   1.9834
     2.0857   2.1464   2.2925   2.3507   2.3702   2.3824   2.3994   2.4358
     2.5844   2.6550   2.6573   2.6928   2.7124   2.7777   2.8582   2.8789
     2.9308   2.9450   2.9649   3.1735   3.1819   3.2204   3.2466   3.4768
     3.4837   3.5229   3.6290   3.6864   3.7203   3.7575   3.7624   3.7818
     3.7882   3.7977   3.8637   3.9647   3.9861   4.0315   4.0401   4.0589
     4.1294   4.2369   4.3480   4.3555   4.4585   4.6293   4.6607   4.6889
     4.7336   4.7976   4.9189   5.0342   5.0575   5.1009   5.1187   5.1541
     5.2222   5.2248   5.2287   5.2885   5.3237   5.3513   5.3644   5.3735
     5.3805   5.4095   5.4423   5.4541   5.4876   5.5012   5.5316   5.6541
     5.7341   5.7614   5.8690   5.8805   5.8965   5.9167   5.9310   5.9573
     6.0746   6.1016   6.1079   6.1555   6.3580   6.3747   6.4005   6.4929
     6.5185   6.5376   6.5600   6.6187   6.6537   6.6621   6.7594   6.7790
     6.7849   6.8118   6.8458   6.8773   6.8787   6.9006   6.9207   6.9226
     6.9407   6.9541   7.0083   7.0161   7.1210   7.1230   7.1391   7.1827
     7.1912   7.1965   7.2398   7.2491   7.2552   7.2570   7.2640   7.2780
     7.3169   7.3532   7.3541   7.3692   7.4040   7.4330   7.4657   7.5256
     7.5270   7.5934   7.6467   7.6943   7.7105   7.7448   7.7631   7.7946
     7.8382   7.8516   7.8586   7.8698   7.8919   7.9116   7.9212   7.9975
     8.0602   8.0741   8.0856   8.1097   8.1175   8.1311   8.1494   8.1592
     8.1743   8.1837   8.2116   8.2568   8.2937   8.3044   8.3600   8.3847
     8.4024   8.4069   8.4219   8.4282   8.4457   8.5016   8.5112   8.5263
     8.6626   8.6792   8.7287   8.8145   8.8229   8.8248   8.8660   8.8832
     8.8907   8.9113   8.9190   8.9283   8.9440   9.0485   9.0741   9.0773
     9.0987   9.1135   9.1194   9.1263   9.1295   9.1347   9.1504   9.1728
     9.1838   9.2108   9.2390   9.2668   9.2789   9.2811   9.2957   9.3601
     9.3662   9.3893   9.4002   9.4277   9.4558   9.5593   9.5789   9.6063
     9.6318   9.6411   9.6468   9.6474   9.6537   9.6810   9.6928   9.7087
     9.7111   9.7275   9.7531   9.7603   9.7756   9.7939   9.8434   9.9224
     9.9257   9.9470  10.0033  10.0105  10.1121  10.1305  10.1926  10.2129
    10.2131  10.2435  10.3525  10.3724  10.4060  10.4159  10.4335  10.4504
    10.4553  10.4714  10.5091  10.5381  10.5779  10.5791  10.5978  10.6028
    10.6181  10.6297  10.6325  10.6414  10.6442  10.6788  10.6891  10.7073
    10.7104  10.7379  10.7622  10.7803  10.8259  10.8611  10.9201  11.0518
    11.0757  11.1116  11.1553  11.1791  11.1945  11.2382  11.2594  11.2659
    11.2708  11.2944  11.3018  11.3202  11.3395  11.3700  11.3908  11.3970
    11.4200  11.4517  11.4579  11.4765  11.4816  11.5487  11.5675  11.5956
    11.6030  11.6178  11.6258  11.6394  11.6670  11.6837  11.6866  11.7163
    11.7379  11.7521  11.7674  11.8046  11.8426  11.8818  11.8999  11.9164
    11.9370  11.9390  11.9464  11.9674  11.9808  11.9957  12.0135  12.0497
    12.0854  12.1460  12.1665  12.1730  12.1933  12.2415  12.2514  12.2825
    12.3297  12.3399  12.4303  12.4397  12.4726  12.5450  12.5547  12.5660
    12.6608  12.6668  12.6807  12.7003  12.7233  12.7317  12.7810  12.7897
    12.7920  12.9807  12.9856  13.0187  13.0259  13.0458  13.0712  13.1194
    13.1220  13.2127  13.2287  13.3183  13.3307  13.3365  13.3837  13.3903
    13.4018  13.4085  13.4106  13.4192  13.4205  13.4226  13.4324  13.4396
    13.4426  13.4890  13.4949  13.5428  13.5592  13.5650  13.5720  13.5758
    13.5911  13.5937  13.6091  13.6335  13.6543  13.7422  13.7840  13.8171
    13.8605  13.8783  13.8947  13.9004  13.9664  13.9744  14.0057  14.0287
    14.0500  14.0662  14.0814  14.0819  14.0991  14.1118  14.1160  14.1362
    14.1383  14.1470  14.1596  14.1750  14.1872  14.2396  14.2532  14.2753
    14.2930  14.3138  14.3954  14.4016  14.4054  14.4185  14.4250  14.4388
    14.4596  14.4888  14.4968  14.5220  14.5540  14.5613  14.5712  14.6067
    14.6292  14.6491  14.7301  14.7526  14.7715  14.7952  14.8068  14.8479
    14.9589  14.9736  15.0126  15.0156  15.0220  15.0248  15.0400  15.0439
    15.0642  15.0876  15.1421  15.1554  15.1668  15.1947  15.2023  15.2188
    15.2427  15.2429  15.2448  15.3078  15.3308  15.3748  15.3814  15.4161
    15.4634  15.5123  15.5516  15.5793  15.5804  15.5845  15.5963  15.6092
    15.6387  15.6584  15.6641  15.6697  15.6877  15.7171  15.7279  15.7406
    15.7436  15.7541  15.7555  15.7722  15.7765  15.7938  15.8233  15.8574
    15.8707  15.9073  15.9399  15.9540  15.9600  16.0553  16.1640  16.1681
    16.1792  16.2364  16.2844  16.3344  16.3581  16.3735  16.4093  16.4271
    16.4413  16.4539  16.4764  16.4987  16.5106  16.5220  16.5272  16.5427
    16.5447  16.5608  16.5756  16.6029  16.6035  16.6128  16.6157  16.6205
    16.6223  16.6361  16.6509  16.6556  16.6727  16.7208  16.7542  16.7945
    16.8034  16.8089  16.8641  16.8732  16.9028  16.9284  16.9357  16.9741
    16.9938  17.1197  17.1836  17.2003  17.2152  17.2320  17.2326  17.2433
    17.2434  17.2530  17.2801  17.2939  17.3092  17.3135  17.3308  17.3759
    17.3999  17.4160  17.4436  17.4506  17.4765  17.5015  17.5134  17.5150
    17.5425  17.5832  17.5898  17.5942  17.6058  17.6667  17.6780  17.7762
    17.8026  17.8555  17.8670  17.8761  17.8875  17.8977  17.9101  17.9300
    17.9498  17.9585  18.0331  18.0450  18.0598  18.0749  18.1187  18.1268
    18.1374  18.1448  18.2361  18.2494  18.2619  18.2663  18.2901  18.2959
    18.3063  18.3120  18.3222  18.3457  18.3514  18.3517  18.3635  18.3955
    18.4065  18.4339  18.4397  18.4629  18.4920  18.5007  18.5235  18.5299
    18.5590  18.5841  18.5920  18.6177  18.6349  18.6788  18.6845  18.6998
    18.7323  18.7425  18.7783  18.7996  18.8009  18.8090  18.8305  18.8641
    18.8720  18.8905  18.9218  19.0490  19.1099  19.1495  19.1659  19.1713
    19.1715  19.1758  19.1803  19.1820  19.2137  19.2525  19.2596  19.2614
    19.2796  19.2876  19.3345  19.3591  19.3810  19.4040  19.4293  19.4493
    19.4537  19.4549  19.4639  19.5457  19.5513  19.5571  19.5620  19.5638
    19.5919  19.6154  19.6318  19.6461  19.6594  19.6675  19.6729  19.6990
    19.7297  19.7803  19.7843  19.7917  19.7923  19.8576  19.8966  19.9096
    20.0580  20.0757  20.0771  20.0822  20.1022  20.1053  20.1285  20.1529
    20.2196  20.2313  20.2750  20.2932  20.3414  20.3525  20.4032  20.4058
    20.4156  20.4332  20.4385  20.4471  20.4495  20.4691  20.4848  20.4945
    20.5178  20.5267  20.5775  20.5913  20.6013  20.6202  20.6346  20.6477
    20.6573  20.6775  20.6897  20.7085  20.7230  20.7417  20.7517  20.7634
    20.7807  20.7867  20.7982  20.8141  20.8457  20.8702  20.8878  20.9571
    20.9753  21.0629  21.0641  21.0844  21.0937  21.0941  21.1069  21.1110
    21.1453  21.1889  21.2066  21.2261  21.2405  21.2580  21.2620  21.2759
    21.3041  21.4061  21.4145  21.4565  21.4734  21.4891  21.5105  21.5238
    21.5354  21.5408  21.5490  21.5508  21.5571  21.5663  21.5731  21.5866
    21.5958  21.6025  21.6092  21.6256  21.6372  21.6532  21.7148  21.7201
    21.7339  21.7471  21.7476  21.7585  21.7842  21.8269  21.8447  21.8520
    21.8639  21.9260  21.9542  21.9630  21.9810  21.9821  21.9949  21.9954
    22.0066  22.0317  22.0453  22.0635  22.0682  22.0817  22.0898  22.0901
    22.0981  22.1137  22.1180  22.1554  22.1559  22.1740  22.1783  22.2275
    22.2321  22.2382  22.2519  22.2786  22.3091  22.3163  22.3420  22.3608
    22.3768  22.4900  22.4991  22.5152  22.5412  22.5519  22.5574  22.5641
    22.5930  22.6087  22.6089  22.6168  22.6401  22.6553  22.6661  22.6727
    22.6963  22.7058  22.7181  22.8049  22.8087  22.8155  22.8240  22.8272
    22.8502  22.8655  22.8795  22.8929  22.9501  22.9862  23.0052  23.0322
    23.0622  23.0728  23.1250  23.1305  23.1481  23.1577  23.1955  23.2135
    23.2471  23.2618  23.3040  23.3158  23.3342  23.3391  23.3997  23.4128
    23.4357  23.4547  23.5102  23.5348  23.5398  23.5456  23.5891  23.5907
    23.6124  23.6151  23.6355  23.6378  23.6522  23.6525  23.6651  23.6759
    23.6998  23.7022  23.7081  23.7131  23.7264  23.7336  23.7532  23.7577
    23.7698  23.7792  23.7848  23.7909  23.8045  23.8314  23.8432  23.8761
    23.8798  23.8837  23.8946  23.9205  23.9333  23.9495  23.9513  23.9746
    23.9886  24.0130  24.0325  24.0613  24.0643  24.0715  24.0758  24.1261
    24.1737  24.1773  24.1797  24.1834  24.2247  24.2430  24.2704  24.2908
    24.2965  24.3093  24.3168  24.3261  24.3309  24.3536  24.3559  24.3585
    24.3659  24.3781  24.3869  24.3928  24.4108  24.4135  24.4206  24.4296
    24.4559  24.4635  24.4958  24.4983  24.5480  24.5728  24.6433  24.6739
    24.7093  24.7164  24.7424  24.7532  24.7884  24.8174  24.8505  24.9123
    24.9510  24.9546  24.9686  24.9696  24.9716  24.9836  24.9958  25.0099
    25.0183  25.0285  25.0851  25.1265  25.1476  25.1619  25.1840  25.1863
    25.1988  25.2089  25.2167  25.2636  25.2938  25.3164  25.3248  25.3408
    25.3485  25.3518  25.4351  25.4692  25.4923  25.4996  25.5017  25.5080
    25.5190  25.5254  25.5370  25.5555  25.5853  25.5875  25.5927  25.6107
    25.6163  25.6212  25.6262  25.6363  25.6500  25.6873  25.7212  25.8028
    25.8537  25.8684  25.8969  25.8974  25.9185  25.9239  25.9362  25.9401
    25.9519  25.9544  25.9670  25.9713  26.0036  26.0120  26.0185  26.0246
    26.0411  26.0882  26.1714  26.1828  26.1944  26.2023  26.2196  26.2298
    26.2413  26.2450  26.2459  26.2595  26.2671  26.2820  26.3024  26.3220
    26.3258  26.3345  26.3769  26.3835  26.4032  26.4089  26.4549  26.5005
    26.5064  26.5236  26.5244  26.5311  26.5411  26.5498  26.5604  26.5852
    26.6102  26.6181  26.6203  26.6287  26.6359  26.6551  26.6570  26.6720
    26.7509  26.7939  26.8098  26.8118  26.8131  26.8177  26.8210  26.8266
    26.8301  26.8322  26.8433  26.9170  26.9346  26.9418  26.9481  27.0070
    27.0446  27.0534  27.0732  27.0826  27.0934  27.1080  27.1304  27.1331
    27.1495  27.1526  27.1631  27.1733  27.1917  27.2365  27.2411  27.2786
    27.2893  27.4357  27.4419  27.4587  27.4621  27.4665  27.4721  27.4730
    27.4788  27.5087  27.5529  27.5641  27.5748  27.5845  27.5898  27.6138
    27.6343  27.6635  27.7203  27.7406  27.7672  27.7816  27.8423  27.8449
    27.8596  27.8651  27.8747  27.8914  27.8963  27.9032  27.9186  27.9278
    27.9329  27.9489  27.9583  27.9591  27.9730  27.9779  27.9834  27.9960
    28.0024  28.0042  28.0093  28.0219  28.0779  28.0875  28.1410  28.1524
    28.1593  28.1889  28.2196  28.2905  28.2985  28.3160  28.3324  28.3572
    28.4213  28.4359  28.4533  28.4640  28.4833  28.4953  28.5108  28.5233
    28.5306  28.5592  28.6059  28.6223  28.6254  28.6297  28.6439  28.6538
    28.6997  28.7210  28.7312  28.7426  28.7452  28.7501  28.7584  28.7740
    28.7890  28.8143  28.8162  28.8471  28.8559  28.8691  28.8742  28.9134
    28.9340  28.9392  28.9428  28.9531  28.9780  29.0429  29.0607  29.0789
    29.0962  29.1189  29.1252  29.1283  29.1461  29.1667  29.1859  29.1942
    29.2116  29.2133  29.2188  29.2266  29.2382  29.2522  29.2555  29.2978
    29.3046  29.3161  29.3209  29.3341  29.3718  29.3858  29.3915  29.4090
    29.4340  29.4417  29.4520  29.5057  29.5335  29.5398  29.5504  29.5515
    29.5920  29.6203  29.6580  29.6794  29.6947  29.6977  29.7011  29.7037
    29.7184  29.7237  29.7266  29.7310  29.7340  29.7460  29.9104  29.9130
    29.9565  29.9629  29.9669  29.9826  29.9831  30.0369  30.0535  30.0540
    30.0609  30.0782  30.0860  30.0874  30.0979  30.1097  30.1145  30.1239
    30.1479  30.1550  30.1593  30.2099  30.2295  30.2449  30.2632  30.2851
    30.2927  30.3016  30.3312  30.3331  30.3646  30.3887  30.3940  30.4035
    30.4444  30.4565  30.4703  30.4722  30.4791  30.4793  30.4814  30.5084
    30.5225  30.5410  30.5510  30.5802  30.5877  30.6294  30.6404  30.6912
    30.7208  30.7267  30.7313  30.7424  30.7483  30.7542  30.7740  30.7944
    30.8375  30.8520  30.8610  30.8791  30.8869  30.8969  30.9025  30.9108
    30.9127  30.9159  30.9333  30.9355  30.9403  30.9436  30.9488  30.9550
    30.9710  30.9860  31.0357  31.0528  31.0837  31.0917  31.1132  31.1158
    31.1195  31.1278  31.1581  31.1702  31.1863  31.1873  31.3057  31.3207
    31.3349  31.3523  31.3688  31.3835  31.3902  31.4019  31.4046  31.4057
    31.4113  31.4240  31.4258  31.4301  31.4500  31.4580  31.4787  31.4937
    31.5681  31.5734  31.6305  31.6919  31.7736  31.8030  31.8232  31.8360
    31.8482  31.8841  31.8920  31.9002  31.9082  31.9204  31.9268  31.9317
    31.9609  32.0262  32.0309  32.0362  32.0961  32.0977  32.0987  32.0989
    32.1431  32.1581  32.1623  32.2196  32.2212  32.2554  32.2590  32.3029
    32.3095  32.3162  32.3370  32.3776  32.3888  32.3962  32.4124  32.4331
    32.4475  32.4982  32.5317  32.5330  32.5492  32.6334  32.6975  32.7131
    32.7411  32.7422  32.7477  32.7544  32.7624  32.7628  32.7727  32.7758
    32.7788  32.7815  32.8021  32.8045  32.8103  32.8236  32.8239  32.8364
    32.8490  32.8644  32.8743  32.8805  32.8909  32.8978  32.9100  32.9104
    32.9389  32.9552  32.9751  32.9913  32.9986  33.0003  33.0016  33.0152
    33.1022  33.1224  33.1313  33.1340  33.1490  33.1548  33.1800  33.1901
    33.2089  33.2588  33.2663  33.2708  33.2758  33.2850  33.3029  33.3199
    33.3413  33.3477  33.3573  33.3939  33.3985  33.4122  33.4195  33.4299
    33.4408  33.4702  33.4831  33.4994  33.5204  33.5208  33.5233  33.5519
    33.5594  33.5690  33.5734  33.5758  33.5833  33.5909  33.6008  33.6095
    33.6206  33.6309  33.6325  33.6482  33.7534  33.7625  33.8656  33.8696
    33.8827  33.8928  33.9030  33.9153  33.9322  33.9328  33.9504  33.9706
    33.9963  34.0267  34.0367  34.0491  34.0532  34.0602  34.0999  34.1062
    34.1113  34.1192  34.1200  34.1290  34.1537  34.1644  34.1915  34.1959
    34.2001  34.2080  34.2171  34.2295  34.2406  34.2621  34.2791  34.2986
    34.3028  34.3444  34.3846  34.4034  34.4064  34.4153  34.4189  34.4328
    34.4525  34.4622  34.4795  34.4923  34.5247  34.5463  34.5509  34.5725
    34.5810  34.5866  34.5894  34.5950  34.5997  34.6039  34.6149  34.6237
    34.6318  34.6695  34.6916  34.7041  34.7154  34.7324  34.7526  34.7594
    34.7964  34.8470  34.8980  34.9091  34.9177  34.9227  34.9446  34.9661
    34.9720  34.9735  34.9790  35.0324  35.0486  35.0948  35.0950  35.1059
    35.1114  35.1164  35.1208  35.1259  35.2311  35.2597  35.2774  35.2776
    35.3097  35.4109  35.4534  35.4574  35.4631  35.4645  35.4707  35.4844
    35.4954  35.5080  35.5177  35.5280  35.5549  35.5766  35.5773  35.5817
    35.5964  35.5972  35.6112  35.6134  35.6235  35.6256  35.6337  35.6360
    35.6382  35.6662  35.6794  35.6896  35.7036  35.7076  35.7154  35.7981
    35.8204  35.8326  35.8467  35.8567  35.8884  35.9799  35.9934  35.9968
    36.0201  36.0662  36.0846  36.0947  36.1102  36.1128  36.1183  36.1271
    36.1294  36.1330  36.1368  36.1575  36.1741  36.1753  36.2081  36.2099
    36.2155  36.2270  36.2527  36.2906  36.2950  36.3005  36.3035  36.3063
    36.3136  36.3187  36.3240  36.3480  36.3811  36.4077  36.4254  36.4350
    36.4427  36.4593  36.4724  36.4784  36.4996  36.5195  36.6485  36.6616
    36.6767  36.7159  36.7270  36.7342  36.7378  36.7416  36.7466  36.7496
    36.7516  36.7555  36.7674  36.7684  36.7735  36.7869  36.7887  36.7928
    36.8014  36.8063  36.8113  36.8215  36.8307  36.8360  36.8631  36.8735
    36.9015  36.9150  36.9152  36.9217  36.9330  36.9549  36.9656  36.9672
    36.9803  36.9862  36.9963  37.0213  37.0509  37.0610  37.1333  37.1394

     occupation numbers 
     1.0000   1.0000   1.0000   1.0000   1.0000   1.0000   1.0000   1.0000
     1.0000   1.0000   1.0000   1.0000   1.0000   1.0000   1.0000   1.0000
     1.0000   1.0000   1.0000   1.0000   1.0000   1.0000   1.0000   1.0000
     1.0000   1.0000   1.0000   1.0000   1.0000   1.0000   1.0000   1.0000
     1.0000   1.0000   1.0000   1.0000   1.0000   1.0000   1.0000   1.0000
     1.0000   1.0000   1.0000   1.0000   1.0000   1.0000   1.0000   1.0000
     1.0000   1.0000   1.0000   1.0000   1.0000   1.0000   1.0000   1.0000
     1.0000   1.0000   1.0000   1.0000   1.0000   1.0000   1.0000   1.0000
     1.0000   1.0000   1.0000   1.0000   1.0000   1.0000   1.0000   1.0000
     1.0000   1.0000   1.0000   1.0000   1.0000   1.0000   1.0000   1.0000
     1.0000   1.0000   1.0000   1.0000   1.0000   1.0000   1.0000   1.0000
     1.0000   1.0000   1.0000   1.0000   1.0000   1.0000   1.0000   1.0000
     1.0000   1.0000   1.0000   1.0000   1.0000   1.0000   1.0000   1.0000
     1.0000   1.0000   1.0000   1.0000   1.0000   1.0000   1.0000   1.0000
     1.0000   1.0000   1.0000   1.0000   1.0000   1.0000   1.0000   1.0000
     1.0000   1.0000   1.0000   1.0000   1.0000   1.0000   1.0000   1.0000
     1.0000   1.0000   1.0000   1.0000   1.0000   1.0000   1.0000   1.0000
     1.0000   1.0000   1.0000   1.0000   1.0000   1.0000   1.0000   1.0000
     0.0000   0.0000   0.0000   0.0000   0.0000   0.0000   0.0000   0.0000
     0.0000   0.0000   0.0000   0.0000   0.0000   0.0000   0.0000   0.0000
     0.0000   0.0000   0.0000   0.0000   0.0000   0.0000   0.0000   0.0000
     0.0000   0.0000   0.0000   0.0000   0.0000   0.0000   0.0000   0.0000
     0.0000   0.0000   0.0000   0.0000   0.0000   0.0000   0.0000   0.0000
     0.0000   0.0000   0.0000   0.0000   0.0000   0.0000   0.0000   0.0000
     0.0000   0.0000   0.0000   0.0000   0.0000   0.0000   0.0000   0.0000
     0.0000   0.0000   0.0000   0.0000   0.0000   0.0000   0.0000   0.0000
     0.0000   0.0000   0.0000   0.0000   0.0000   0.0000   0.0000   0.0000
     0.0000   0.0000   0.0000   0.0000   0.0000   0.0000   0.0000   0.0000
     0.0000   0.0000   0.0000   0.0000   0.0000   0.0000   0.0000   0.0000
     0.0000   0.0000   0.0000   0.0000   0.0000   0.0000   0.0000   0.0000
     0.0000   0.0000   0.0000   0.0000   0.0000   0.0000   0.0000   0.0000
     0.0000   0.0000   0.0000   0.0000   0.0000   0.0000   0.0000   0.0000
     0.0000   0.0000   0.0000   0.0000   0.0000   0.0000   0.0000   0.0000
     0.0000   0.0000   0.0000   0.0000   0.0000   0.0000   0.0000   0.0000
     0.0000   0.0000   0.0000   0.0000   0.0000   0.0000   0.0000   0.0000
     0.0000   0.0000   0.0000   0.0000   0.0000   0.0000   0.0000   0.0000
     0.0000   0.0000   0.0000   0.0000   0.0000   0.0000   0.0000   0.0000
     0.0000   0.0000   0.0000   0.0000   0.0000   0.0000   0.0000   0.0000
     0.0000   0.0000   0.0000   0.0000   0.0000   0.0000   0.0000   0.0000
     0.0000   0.0000   0.0000   0.0000   0.0000   0.0000   0.0000   0.0000
     0.0000   0.0000   0.0000   0.0000   0.0000   0.0000   0.0000   0.0000
     0.0000   0.0000   0.0000   0.0000   0.0000   0.0000   0.0000   0.0000
     0.0000   0.0000   0.0000   0.0000   0.0000   0.0000   0.0000   0.0000
     0.0000   0.0000   0.0000   0.0000   0.0000   0.0000   0.0000   0.0000
     0.0000   0.0000   0.0000   0.0000   0.0000   0.0000   0.0000   0.0000
     0.0000   0.0000   0.0000   0.0000   0.0000   0.0000   0.0000   0.0000
     0.0000   0.0000   0.0000   0.0000   0.0000   0.0000   0.0000   0.0000
     0.0000   0.0000   0.0000   0.0000   0.0000   0.0000   0.0000   0.0000
     0.0000   0.0000   0.0000   0.0000   0.0000   0.0000   0.0000   0.0000
     0.0000   0.0000   0.0000   0.0000   0.0000   0.0000   0.0000   0.0000
     0.0000   0.0000   0.0000   0.0000   0.0000   0.0000   0.0000   0.0000
     0.0000   0.0000   0.0000   0.0000   0.0000   0.0000   0.0000   0.0000
     0.0000   0.0000   0.0000   0.0000   0.0000   0.0000   0.0000   0.0000
     0.0000   0.0000   0.0000   0.0000   0.0000   0.0000   0.0000   0.0000
     0.0000   0.0000   0.0000   0.0000   0.0000   0.0000   0.0000   0.0000
     0.0000   0.0000   0.0000   0.0000   0.0000   0.0000   0.0000   0.0000
     0.0000   0.0000   0.0000   0.0000   0.0000   0.0000   0.0000   0.0000
     0.0000   0.0000   0.0000   0.0000   0.0000   0.0000   0.0000   0.0000
     0.0000   0.0000   0.0000   0.0000   0.0000   0.0000   0.0000   0.0000
     0.0000   0.0000   0.0000   0.0000   0.0000   0.0000   0.0000   0.0000
     0.0000   0.0000   0.0000   0.0000   0.0000   0.0000   0.0000   0.0000
     0.0000   0.0000   0.0000   0.0000   0.0000   0.0000   0.0000   0.0000
     0.0000   0.0000   0.0000   0.0000   0.0000   0.0000   0.0000   0.0000
     0.0000   0.0000   0.0000   0.0000   0.0000   0.0000   0.0000   0.0000
     0.0000   0.0000   0.0000   0.0000   0.0000   0.0000   0.0000   0.0000
     0.0000   0.0000   0.0000   0.0000   0.0000   0.0000   0.0000   0.0000
     0.0000   0.0000   0.0000   0.0000   0.0000   0.0000   0.0000   0.0000
     0.0000   0.0000   0.0000   0.0000   0.0000   0.0000   0.0000   0.0000
     0.0000   0.0000   0.0000   0.0000   0.0000   0.0000   0.0000   0.0000
     0.0000   0.0000   0.0000   0.0000   0.0000   0.0000   0.0000   0.0000
     0.0000   0.0000   0.0000   0.0000   0.0000   0.0000   0.0000   0.0000
     0.0000   0.0000   0.0000   0.0000   0.0000   0.0000   0.0000   0.0000
     0.0000   0.0000   0.0000   0.0000   0.0000   0.0000   0.0000   0.0000
     0.0000   0.0000   0.0000   0.0000   0.0000   0.0000   0.0000   0.0000
     0.0000   0.0000   0.0000   0.0000   0.0000   0.0000   0.0000   0.0000
     0.0000   0.0000   0.0000   0.0000   0.0000   0.0000   0.0000   0.0000
     0.0000   0.0000   0.0000   0.0000   0.0000   0.0000   0.0000   0.0000
     0.0000   0.0000   0.0000   0.0000   0.0000   0.0000   0.0000   0.0000
     0.0000   0.0000   0.0000   0.0000   0.0000   0.0000   0.0000   0.0000
     0.0000   0.0000   0.0000   0.0000   0.0000   0.0000   0.0000   0.0000
     0.0000   0.0000   0.0000   0.0000   0.0000   0.0000   0.0000   0.0000
     0.0000   0.0000   0.0000   0.0000   0.0000   0.0000   0.0000   0.0000
     0.0000   0.0000   0.0000   0.0000   0.0000   0.0000   0.0000   0.0000
     0.0000   0.0000   0.0000   0.0000   0.0000   0.0000   0.0000   0.0000
     0.0000   0.0000   0.0000   0.0000   0.0000   0.0000   0.0000   0.0000
     0.0000   0.0000   0.0000   0.0000   0.0000   0.0000   0.0000   0.0000
     0.0000   0.0000   0.0000   0.0000   0.0000   0.0000   0.0000   0.0000
     0.0000   0.0000   0.0000   0.0000   0.0000   0.0000   0.0000   0.0000
     0.0000   0.0000   0.0000   0.0000   0.0000   0.0000   0.0000   0.0000
     0.0000   0.0000   0.0000   0.0000   0.0000   0.0000   0.0000   0.0000
     0.0000   0.0000   0.0000   0.0000   0.0000   0.0000   0.0000   0.0000
     0.0000   0.0000   0.0000   0.0000   0.0000   0.0000   0.0000   0.0000
     0.0000   0.0000   0.0000   0.0000   0.0000   0.0000   0.0000   0.0000
     0.0000   0.0000   0.0000   0.0000   0.0000   0.0000   0.0000   0.0000
     0.0000   0.0000   0.0000   0.0000   0.0000   0.0000   0.0000   0.0000
     0.0000   0.0000   0.0000   0.0000   0.0000   0.0000   0.0000   0.0000
     0.0000   0.0000   0.0000   0.0000   0.0000   0.0000   0.0000   0.0000
     0.0000   0.0000   0.0000   0.0000   0.0000   0.0000   0.0000   0.0000
     0.0000   0.0000   0.0000   0.0000   0.0000   0.0000   0.0000   0.0000
     0.0000   0.0000   0.0000   0.0000   0.0000   0.0000   0.0000   0.0000
     0.0000   0.0000   0.0000   0.0000   0.0000   0.0000   0.0000   0.0000
     0.0000   0.0000   0.0000   0.0000   0.0000   0.0000   0.0000   0.0000
     0.0000   0.0000   0.0000   0.0000   0.0000   0.0000   0.0000   0.0000
     0.0000   0.0000   0.0000   0.0000   0.0000   0.0000   0.0000   0.0000
     0.0000   0.0000   0.0000   0.0000   0.0000   0.0000   0.0000   0.0000
     0.0000   0.0000   0.0000   0.0000   0.0000   0.0000   0.0000   0.0000
     0.0000   0.0000   0.0000   0.0000   0.0000   0.0000   0.0000   0.0000
     0.0000   0.0000   0.0000   0.0000   0.0000   0.0000   0.0000   0.0000
     0.0000   0.0000   0.0000   0.0000   0.0000   0.0000   0.0000   0.0000
     0.0000   0.0000   0.0000   0.0000   0.0000   0.0000   0.0000   0.0000
     0.0000   0.0000   0.0000   0.0000   0.0000   0.0000   0.0000   0.0000
     0.0000   0.0000   0.0000   0.0000   0.0000   0.0000   0.0000   0.0000
     0.0000   0.0000   0.0000   0.0000   0.0000   0.0000   0.0000   0.0000
     0.0000   0.0000   0.0000   0.0000   0.0000   0.0000   0.0000   0.0000
     0.0000   0.0000   0.0000   0.0000   0.0000   0.0000   0.0000   0.0000
     0.0000   0.0000   0.0000   0.0000   0.0000   0.0000   0.0000   0.0000
     0.0000   0.0000   0.0000   0.0000   0.0000   0.0000   0.0000   0.0000
     0.0000   0.0000   0.0000   0.0000   0.0000   0.0000   0.0000   0.0000
     0.0000   0.0000   0.0000   0.0000   0.0000   0.0000   0.0000   0.0000
     0.0000   0.0000   0.0000   0.0000   0.0000   0.0000   0.0000   0.0000
     0.0000   0.0000   0.0000   0.0000   0.0000   0.0000   0.0000   0.0000
     0.0000   0.0000   0.0000   0.0000   0.0000   0.0000   0.0000   0.0000
     0.0000   0.0000   0.0000   0.0000   0.0000   0.0000   0.0000   0.0000
     0.0000   0.0000   0.0000   0.0000   0.0000   0.0000   0.0000   0.0000
     0.0000   0.0000   0.0000   0.0000   0.0000   0.0000   0.0000   0.0000
     0.0000   0.0000   0.0000   0.0000   0.0000   0.0000   0.0000   0.0000
     0.0000   0.0000   0.0000   0.0000   0.0000   0.0000   0.0000   0.0000
     0.0000   0.0000   0.0000   0.0000   0.0000   0.0000   0.0000   0.0000
     0.0000   0.0000   0.0000   0.0000   0.0000   0.0000   0.0000   0.0000
     0.0000   0.0000   0.0000   0.0000   0.0000   0.0000   0.0000   0.0000
     0.0000   0.0000   0.0000   0.0000   0.0000   0.0000   0.0000   0.0000
     0.0000   0.0000   0.0000   0.0000   0.0000   0.0000   0.0000   0.0000
     0.0000   0.0000   0.0000   0.0000   0.0000   0.0000   0.0000   0.0000
     0.0000   0.0000   0.0000   0.0000   0.0000   0.0000   0.0000   0.0000
     0.0000   0.0000   0.0000   0.0000   0.0000   0.0000   0.0000   0.0000
     0.0000   0.0000   0.0000   0.0000   0.0000   0.0000   0.0000   0.0000
     0.0000   0.0000   0.0000   0.0000   0.0000   0.0000   0.0000   0.0000
     0.0000   0.0000   0.0000   0.0000   0.0000   0.0000   0.0000   0.0000
     0.0000   0.0000   0.0000   0.0000   0.0000   0.0000   0.0000   0.0000
     0.0000   0.0000   0.0000   0.0000   0.0000   0.0000   0.0000   0.0000
     0.0000   0.0000   0.0000   0.0000   0.0000   0.0000   0.0000   0.0000
     0.0000   0.0000   0.0000   0.0000   0.0000   0.0000   0.0000   0.0000
     0.0000   0.0000   0.0000   0.0000   0.0000   0.0000   0.0000   0.0000
     0.0000   0.0000   0.0000   0.0000   0.0000   0.0000   0.0000   0.0000
     0.0000   0.0000   0.0000   0.0000   0.0000   0.0000   0.0000   0.0000
     0.0000   0.0000   0.0000   0.0000   0.0000   0.0000   0.0000   0.0000
     0.0000   0.0000   0.0000   0.0000   0.0000   0.0000   0.0000   0.0000
     0.0000   0.0000   0.0000   0.0000   0.0000   0.0000   0.0000   0.0000
     0.0000   0.0000   0.0000   0.0000   0.0000   0.0000   0.0000   0.0000
     0.0000   0.0000   0.0000   0.0000   0.0000   0.0000   0.0000   0.0000
     0.0000   0.0000   0.0000   0.0000   0.0000   0.0000   0.0000   0.0000
     0.0000   0.0000   0.0000   0.0000   0.0000   0.0000   0.0000   0.0000
     0.0000   0.0000   0.0000   0.0000   0.0000   0.0000   0.0000   0.0000
[...]
    36.2154  36.2270  36.2528  36.2906  36.2950  36.3005  36.3035  36.3062
    36.3136  36.3187  36.3240  36.3481  36.3811  36.4077  36.4253  36.4350
    36.4427  36.4593  36.4725  36.4785  36.4997  36.5196  36.6485  36.6615
    36.6767  36.7159  36.7270  36.7342  36.7379  36.7416  36.7466  36.7497
    36.7516  36.7555  36.7674  36.7684  36.7735  36.7869  36.7888  36.7928
    36.8014  36.8063  36.8113  36.8215  36.8307  36.8360  36.8631  36.8735
    36.9016  36.9149  36.9151  36.9217  36.9330  36.9549  36.9656  36.9672
    36.9803  36.9861  36.9963  37.0213  37.0509  37.0610  37.1333  37.1394

     occupation numbers 
     1.0000   1.0000   1.0000   1.0000   1.0000   1.0000   1.0000   1.0000
     1.0000   1.0000   1.0000   1.0000   1.0000   1.0000   1.0000   1.0000
     1.0000   1.0000   1.0000   1.0000   1.0000   1.0000   1.0000   1.0000
     1.0000   1.0000   1.0000   1.0000   1.0000   1.0000   1.0000   1.0000
     1.0000   1.0000   1.0000   1.0000   1.0000   1.0000   1.0000   1.0000
     1.0000   1.0000   1.0000   1.0000   1.0000   1.0000   1.0000   1.0000
     1.0000   1.0000   1.0000   1.0000   1.0000   1.0000   1.0000   1.0000
     1.0000   1.0000   1.0000   1.0000   1.0000   1.0000   1.0000   1.0000
     1.0000   1.0000   1.0000   1.0000   1.0000   1.0000   1.0000   1.0000
     1.0000   1.0000   1.0000   1.0000   1.0000   1.0000   1.0000   1.0000
     1.0000   1.0000   1.0000   1.0000   1.0000   1.0000   1.0000   1.0000
     1.0000   1.0000   1.0000   1.0000   1.0000   1.0000   1.0000   1.0000
     1.0000   1.0000   1.0000   1.0000   1.0000   1.0000   1.0000   1.0000
     1.0000   1.0000   1.0000   1.0000   1.0000   1.0000   1.0000   1.0000
     1.0000   1.0000   1.0000   1.0000   1.0000   1.0000   1.0000   1.0000
     1.0000   1.0000   1.0000   1.0000   1.0000   1.0000   1.0000   1.0000
     1.0000   1.0000   1.0000   1.0000   1.0000   1.0000   1.0000   1.0000
     1.0000   1.0000   1.0000   1.0000   1.0000   1.0000   1.0000   1.0000
     0.0000   0.0000   0.0000   0.0000   0.0000   0.0000   0.0000   0.0000
     0.0000   0.0000   0.0000   0.0000   0.0000   0.0000   0.0000   0.0000
     0.0000   0.0000   0.0000   0.0000   0.0000   0.0000   0.0000   0.0000
     0.0000   0.0000   0.0000   0.0000   0.0000   0.0000   0.0000   0.0000
     0.0000   0.0000   0.0000   0.0000   0.0000   0.0000   0.0000   0.0000
     0.0000   0.0000   0.0000   0.0000   0.0000   0.0000   0.0000   0.0000
     0.0000   0.0000   0.0000   0.0000   0.0000   0.0000   0.0000   0.0000
     0.0000   0.0000   0.0000   0.0000   0.0000   0.0000   0.0000   0.0000
     0.0000   0.0000   0.0000   0.0000   0.0000   0.0000   0.0000   0.0000
     0.0000   0.0000   0.0000   0.0000   0.0000   0.0000   0.0000   0.0000
     0.0000   0.0000   0.0000   0.0000   0.0000   0.0000   0.0000   0.0000
     0.0000   0.0000   0.0000   0.0000   0.0000   0.0000   0.0000   0.0000
     0.0000   0.0000   0.0000   0.0000   0.0000   0.0000   0.0000   0.0000
     0.0000   0.0000   0.0000   0.0000   0.0000   0.0000   0.0000   0.0000
     0.0000   0.0000   0.0000   0.0000   0.0000   0.0000   0.0000   0.0000
     0.0000   0.0000   0.0000   0.0000   0.0000   0.0000   0.0000   0.0000
     0.0000   0.0000   0.0000   0.0000   0.0000   0.0000   0.0000   0.0000
     0.0000   0.0000   0.0000   0.0000   0.0000   0.0000   0.0000   0.0000
     0.0000   0.0000   0.0000   0.0000   0.0000   0.0000   0.0000   0.0000
     0.0000   0.0000   0.0000   0.0000   0.0000   0.0000   0.0000   0.0000
     0.0000   0.0000   0.0000   0.0000   0.0000   0.0000   0.0000   0.0000
     0.0000   0.0000   0.0000   0.0000   0.0000   0.0000   0.0000   0.0000
     0.0000   0.0000   0.0000   0.0000   0.0000   0.0000   0.0000   0.0000
     0.0000   0.0000   0.0000   0.0000   0.0000   0.0000   0.0000   0.0000
     0.0000   0.0000   0.0000   0.0000   0.0000   0.0000   0.0000   0.0000
     0.0000   0.0000   0.0000   0.0000   0.0000   0.0000   0.0000   0.0000
     0.0000   0.0000   0.0000   0.0000   0.0000   0.0000   0.0000   0.0000
     0.0000   0.0000   0.0000   0.0000   0.0000   0.0000   0.0000   0.0000
     0.0000   0.0000   0.0000   0.0000   0.0000   0.0000   0.0000   0.0000
     0.0000   0.0000   0.0000   0.0000   0.0000   0.0000   0.0000   0.0000
     0.0000   0.0000   0.0000   0.0000   0.0000   0.0000   0.0000   0.0000
     0.0000   0.0000   0.0000   0.0000   0.0000   0.0000   0.0000   0.0000
     0.0000   0.0000   0.0000   0.0000   0.0000   0.0000   0.0000   0.0000
     0.0000   0.0000   0.0000   0.0000   0.0000   0.0000   0.0000   0.0000
     0.0000   0.0000   0.0000   0.0000   0.0000   0.0000   0.0000   0.0000
     0.0000   0.0000   0.0000   0.0000   0.0000   0.0000   0.0000   0.0000
     0.0000   0.0000   0.0000   0.0000   0.0000   0.0000   0.0000   0.0000
     0.0000   0.0000   0.0000   0.0000   0.0000   0.0000   0.0000   0.0000
     0.0000   0.0000   0.0000   0.0000   0.0000   0.0000   0.0000   0.0000
     0.0000   0.0000   0.0000   0.0000   0.0000   0.0000   0.0000   0.0000
     0.0000   0.0000   0.0000   0.0000   0.0000   0.0000   0.0000   0.0000
     0.0000   0.0000   0.0000   0.0000   0.0000   0.0000   0.0000   0.0000
     0.0000   0.0000   0.0000   0.0000   0.0000   0.0000   0.0000   0.0000
     0.0000   0.0000   0.0000   0.0000   0.0000   0.0000   0.0000   0.0000
     0.0000   0.0000   0.0000   0.0000   0.0000   0.0000   0.0000   0.0000
     0.0000   0.0000   0.0000   0.0000   0.0000   0.0000   0.0000   0.0000
     0.0000   0.0000   0.0000   0.0000   0.0000   0.0000   0.0000   0.0000
     0.0000   0.0000   0.0000   0.0000   0.0000   0.0000   0.0000   0.0000
     0.0000   0.0000   0.0000   0.0000   0.0000   0.0000   0.0000   0.0000
     0.0000   0.0000   0.0000   0.0000   0.0000   0.0000   0.0000   0.0000
     0.0000   0.0000   0.0000   0.0000   0.0000   0.0000   0.0000   0.0000
     0.0000   0.0000   0.0000   0.0000   0.0000   0.0000   0.0000   0.0000
     0.0000   0.0000   0.0000   0.0000   0.0000   0.0000   0.0000   0.0000
     0.0000   0.0000   0.0000   0.0000   0.0000   0.0000   0.0000   0.0000
     0.0000   0.0000   0.0000   0.0000   0.0000   0.0000   0.0000   0.0000
     0.0000   0.0000   0.0000   0.0000   0.0000   0.0000   0.0000   0.0000
     0.0000   0.0000   0.0000   0.0000   0.0000   0.0000   0.0000   0.0000
     0.0000   0.0000   0.0000   0.0000   0.0000   0.0000   0.0000   0.0000
     0.0000   0.0000   0.0000   0.0000   0.0000   0.0000   0.0000   0.0000
     0.0000   0.0000   0.0000   0.0000   0.0000   0.0000   0.0000   0.0000
     0.0000   0.0000   0.0000   0.0000   0.0000   0.0000   0.0000   0.0000
     0.0000   0.0000   0.0000   0.0000   0.0000   0.0000   0.0000   0.0000
     0.0000   0.0000   0.0000   0.0000   0.0000   0.0000   0.0000   0.0000
     0.0000   0.0000   0.0000   0.0000   0.0000   0.0000   0.0000   0.0000
     0.0000   0.0000   0.0000   0.0000   0.0000   0.0000   0.0000   0.0000
     0.0000   0.0000   0.0000   0.0000   0.0000   0.0000   0.0000   0.0000
     0.0000   0.0000   0.0000   0.0000   0.0000   0.0000   0.0000   0.0000
     0.0000   0.0000   0.0000   0.0000   0.0000   0.0000   0.0000   0.0000
     0.0000   0.0000   0.0000   0.0000   0.0000   0.0000   0.0000   0.0000
     0.0000   0.0000   0.0000   0.0000   0.0000   0.0000   0.0000   0.0000
     0.0000   0.0000   0.0000   0.0000   0.0000   0.0000   0.0000   0.0000
     0.0000   0.0000   0.0000   0.0000   0.0000   0.0000   0.0000   0.0000
     0.0000   0.0000   0.0000   0.0000   0.0000   0.0000   0.0000   0.0000
     0.0000   0.0000   0.0000   0.0000   0.0000   0.0000   0.0000   0.0000
     0.0000   0.0000   0.0000   0.0000   0.0000   0.0000   0.0000   0.0000
     0.0000   0.0000   0.0000   0.0000   0.0000   0.0000   0.0000   0.0000
     0.0000   0.0000   0.0000   0.0000   0.0000   0.0000   0.0000   0.0000
     0.0000   0.0000   0.0000   0.0000   0.0000   0.0000   0.0000   0.0000
     0.0000   0.0000   0.0000   0.0000   0.0000   0.0000   0.0000   0.0000
     0.0000   0.0000   0.0000   0.0000   0.0000   0.0000   0.0000   0.0000
     0.0000   0.0000   0.0000   0.0000   0.0000   0.0000   0.0000   0.0000
     0.0000   0.0000   0.0000   0.0000   0.0000   0.0000   0.0000   0.0000
     0.0000   0.0000   0.0000   0.0000   0.0000   0.0000   0.0000   0.0000
     0.0000   0.0000   0.0000   0.0000   0.0000   0.0000   0.0000   0.0000
     0.0000   0.0000   0.0000   0.0000   0.0000   0.0000   0.0000   0.0000
     0.0000   0.0000   0.0000   0.0000   0.0000   0.0000   0.0000   0.0000
     0.0000   0.0000   0.0000   0.0000   0.0000   0.0000   0.0000   0.0000
     0.0000   0.0000   0.0000   0.0000   0.0000   0.0000   0.0000   0.0000
     0.0000   0.0000   0.0000   0.0000   0.0000   0.0000   0.0000   0.0000
     0.0000   0.0000   0.0000   0.0000   0.0000   0.0000   0.0000   0.0000
     0.0000   0.0000   0.0000   0.0000   0.0000   0.0000   0.0000   0.0000
     0.0000   0.0000   0.0000   0.0000   0.0000   0.0000   0.0000   0.0000
     0.0000   0.0000   0.0000   0.0000   0.0000   0.0000   0.0000   0.0000
     0.0000   0.0000   0.0000   0.0000   0.0000   0.0000   0.0000   0.0000
     0.0000   0.0000   0.0000   0.0000   0.0000   0.0000   0.0000   0.0000
     0.0000   0.0000   0.0000   0.0000   0.0000   0.0000   0.0000   0.0000
     0.0000   0.0000   0.0000   0.0000   0.0000   0.0000   0.0000   0.0000
     0.0000   0.0000   0.0000   0.0000   0.0000   0.0000   0.0000   0.0000
     0.0000   0.0000   0.0000   0.0000   0.0000   0.0000   0.0000   0.0000
     0.0000   0.0000   0.0000   0.0000   0.0000   0.0000   0.0000   0.0000
     0.0000   0.0000   0.0000   0.0000   0.0000   0.0000   0.0000   0.0000
     0.0000   0.0000   0.0000   0.0000   0.0000   0.0000   0.0000   0.0000
     0.0000   0.0000   0.0000   0.0000   0.0000   0.0000   0.0000   0.0000
     0.0000   0.0000   0.0000   0.0000   0.0000   0.0000   0.0000   0.0000
     0.0000   0.0000   0.0000   0.0000   0.0000   0.0000   0.0000   0.0000
     0.0000   0.0000   0.0000   0.0000   0.0000   0.0000   0.0000   0.0000
     0.0000   0.0000   0.0000   0.0000   0.0000   0.0000   0.0000   0.0000
     0.0000   0.0000   0.0000   0.0000   0.0000   0.0000   0.0000   0.0000
     0.0000   0.0000   0.0000   0.0000   0.0000   0.0000   0.0000   0.0000
     0.0000   0.0000   0.0000   0.0000   0.0000   0.0000   0.0000   0.0000
     0.0000   0.0000   0.0000   0.0000   0.0000   0.0000   0.0000   0.0000
     0.0000   0.0000   0.0000   0.0000   0.0000   0.0000   0.0000   0.0000
     0.0000   0.0000   0.0000   0.0000   0.0000   0.0000   0.0000   0.0000
     0.0000   0.0000   0.0000   0.0000   0.0000   0.0000   0.0000   0.0000
     0.0000   0.0000   0.0000   0.0000   0.0000   0.0000   0.0000   0.0000
     0.0000   0.0000   0.0000   0.0000   0.0000   0.0000   0.0000   0.0000
     0.0000   0.0000   0.0000   0.0000   0.0000   0.0000   0.0000   0.0000
     0.0000   0.0000   0.0000   0.0000   0.0000   0.0000   0.0000   0.0000
     0.0000   0.0000   0.0000   0.0000   0.0000   0.0000   0.0000   0.0000
     0.0000   0.0000   0.0000   0.0000   0.0000   0.0000   0.0000   0.0000
     0.0000   0.0000   0.0000   0.0000   0.0000   0.0000   0.0000   0.0000
     0.0000   0.0000   0.0000   0.0000   0.0000   0.0000   0.0000   0.0000
     0.0000   0.0000   0.0000   0.0000   0.0000   0.0000   0.0000   0.0000
     0.0000   0.0000   0.0000   0.0000   0.0000   0.0000   0.0000   0.0000
     0.0000   0.0000   0.0000   0.0000   0.0000   0.0000   0.0000   0.0000
     0.0000   0.0000   0.0000   0.0000   0.0000   0.0000   0.0000   0.0000
     0.0000   0.0000   0.0000   0.0000   0.0000   0.0000   0.0000   0.0000
     0.0000   0.0000   0.0000   0.0000   0.0000   0.0000   0.0000   0.0000
     0.0000   0.0000   0.0000   0.0000   0.0000   0.0000   0.0000   0.0000
     0.0000   0.0000   0.0000   0.0000   0.0000   0.0000   0.0000   0.0000
     0.0000   0.0000   0.0000   0.0000   0.0000   0.0000   0.0000   0.0000
     0.0000   0.0000   0.0000   0.0000   0.0000   0.0000   0.0000   0.0000
     0.0000   0.0000   0.0000   0.0000   0.0000   0.0000   0.0000   0.0000
     0.0000   0.0000   0.0000   0.0000   0.0000   0.0000   0.0000   0.0000
     0.0000   0.0000   0.0000   0.0000   0.0000   0.0000   0.0000   0.0000
     0.0000   0.0000   0.0000   0.0000   0.0000   0.0000   0.0000   0.0000
     0.0000   0.0000   0.0000   0.0000   0.0000   0.0000   0.0000   0.0000
     0.0000   0.0000   0.0000   0.0000   0.0000   0.0000   0.0000   0.0000
     0.0000   0.0000   0.0000   0.0000   0.0000   0.0000   0.0000   0.0000
     0.0000   0.0000   0.0000   0.0000   0.0000   0.0000   0.0000   0.0000
     0.0000   0.0000   0.0000   0.0000   0.0000   0.0000   0.0000   0.0000
     0.0000   0.0000   0.0000   0.0000   0.0000   0.0000   0.0000   0.0000
     0.0000   0.0000   0.0000   0.0000   0.0000   0.0000   0.0000   0.0000
     0.0000   0.0000   0.0000   0.0000   0.0000   0.0000   0.0000   0.0000
     0.0000   0.0000   0.0000   0.0000   0.0000   0.0000   0.0000   0.0000
     0.0000   0.0000   0.0000   0.0000   0.0000   0.0000   0.0000   0.0000
     0.0000   0.0000   0.0000   0.0000   0.0000   0.0000   0.0000   0.0000
     0.0000   0.0000   0.0000   0.0000   0.0000   0.0000   0.0000   0.0000
     0.0000   0.0000   0.0000   0.0000   0.0000   0.0000   0.0000   0.0000
     0.0000   0.0000   0.0000   0.0000   0.0000   0.0000   0.0000   0.0000
     0.0000   0.0000   0.0000   0.0000   0.0000   0.0000   0.0000   0.0000
     0.0000   0.0000   0.0000   0.0000   0.0000   0.0000   0.0000   0.0000
     0.0000   0.0000   0.0000   0.0000   0.0000   0.0000   0.0000   0.0000
     0.0000   0.0000   0.0000   0.0000   0.0000   0.0000   0.0000   0.0000
     0.0000   0.0000   0.0000   0.0000   0.0000   0.0000   0.0000   0.0000
     0.0000   0.0000   0.0000   0.0000   0.0000   0.0000   0.0000   0.0000
     0.0000   0.0000   0.0000   0.0000   0.0000   0.0000   0.0000   0.0000
     0.0000   0.0000   0.0000   0.0000   0.0000   0.0000   0.0000   0.0000
     0.0000   0.0000   0.0000   0.0000   0.0000   0.0000   0.0000   0.0000
     0.0000   0.0000   0.0000   0.0000   0.0000   0.0000   0.0000   0.0000
     0.0000   0.0000   0.0000   0.0000   0.0000   0.0000   0.0000   0.0000
     0.0000   0.0000   0.0000   0.0000   0.0000   0.0000   0.0000   0.0000
     0.0000   0.0000   0.0000   0.0000   0.0000   0.0000   0.0000   0.0000
     0.0000   0.0000   0.0000   0.0000   0.0000   0.0000   0.0000   0.0000
     0.0000   0.0000   0.0000   0.0000   0.0000   0.0000   0.0000   0.0000
     0.0000   0.0000   0.0000   0.0000   0.0000   0.0000   0.0000   0.0000
     0.0000   0.0000   0.0000   0.0000   0.0000   0.0000   0.0000   0.0000
     0.0000   0.0000   0.0000   0.0000   0.0000   0.0000   0.0000   0.0000
     0.0000   0.0000   0.0000   0.0000   0.0000   0.0000   0.0000   0.0000
     0.0000   0.0000   0.0000   0.0000   0.0000   0.0000   0.0000   0.0000
     0.0000   0.0000   0.0000   0.0000   0.0000   0.0000   0.0000   0.0000
     0.0000   0.0000   0.0000   0.0000   0.0000   0.0000   0.0000   0.0000
     0.0000   0.0000   0.0000   0.0000   0.0000   0.0000   0.0000   0.0000
     0.0000   0.0000   0.0000   0.0000   0.0000   0.0000   0.0000   0.0000
     0.0000   0.0000   0.0000   0.0000   0.0000   0.0000   0.0000   0.0000
     0.0000   0.0000   0.0000   0.0000   0.0000   0.0000   0.0000   0.0000
     0.0000   0.0000   0.0000   0.0000   0.0000   0.0000   0.0000   0.0000
     0.0000   0.0000   0.0000   0.0000   0.0000   0.0000   0.0000   0.0000
     0.0000   0.0000   0.0000   0.0000   0.0000   0.0000   0.0000   0.0000
     0.0000   0.0000   0.0000   0.0000   0.0000   0.0000   0.0000   0.0000
     0.0000   0.0000   0.0000   0.0000   0.0000   0.0000   0.0000   0.0000
     0.0000   0.0000   0.0000   0.0000   0.0000   0.0000   0.0000   0.0000
     0.0000   0.0000   0.0000   0.0000   0.0000   0.0000   0.0000   0.0000
     0.0000   0.0000   0.0000   0.0000   0.0000   0.0000   0.0000   0.0000
     0.0000   0.0000   0.0000   0.0000   0.0000   0.0000   0.0000   0.0000
     0.0000   0.0000   0.0000   0.0000   0.0000   0.0000   0.0000   0.0000
     0.0000   0.0000   0.0000   0.0000   0.0000   0.0000   0.0000   0.0000
     0.0000   0.0000   0.0000   0.0000   0.0000   0.0000   0.0000   0.0000
     0.0000   0.0000   0.0000   0.0000   0.0000   0.0000   0.0000   0.0000
     0.0000   0.0000   0.0000   0.0000   0.0000   0.0000   0.0000   0.0000
     0.0000   0.0000   0.0000   0.0000   0.0000   0.0000   0.0000   0.0000
     0.0000   0.0000   0.0000   0.0000   0.0000   0.0000   0.0000   0.0000
     0.0000   0.0000   0.0000   0.0000   0.0000   0.0000   0.0000   0.0000
     0.0000   0.0000   0.0000   0.0000   0.0000   0.0000   0.0000   0.0000
     0.0000   0.0000   0.0000   0.0000   0.0000   0.0000   0.0000   0.0000
     0.0000   0.0000   0.0000   0.0000   0.0000   0.0000   0.0000   0.0000
     0.0000   0.0000   0.0000   0.0000   0.0000   0.0000   0.0000   0.0000
     0.0000   0.0000   0.0000   0.0000   0.0000   0.0000   0.0000   0.0000
     0.0000   0.0000   0.0000   0.0000   0.0000   0.0000   0.0000   0.0000
     0.0000   0.0000   0.0000   0.0000   0.0000   0.0000   0.0000   0.0000
     0.0000   0.0000   0.0000   0.0000   0.0000   0.0000   0.0000   0.0000
     0.0000   0.0000   0.0000   0.0000   0.0000   0.0000   0.0000   0.0000
     0.0000   0.0000   0.0000   0.0000   0.0000   0.0000   0.0000   0.0000
     0.0000   0.0000   0.0000   0.0000   0.0000   0.0000   0.0000   0.0000
     0.0000   0.0000   0.0000   0.0000   0.0000   0.0000   0.0000   0.0000
     0.0000   0.0000   0.0000   0.0000   0.0000   0.0000   0.0000   0.0000
     0.0000   0.0000   0.0000   0.0000   0.0000   0.0000   0.0000   0.0000

     highest occupied, lowest unoccupied level (ev):    -3.1642    0.3889

     Writing output data file BN.save
 
     init_run     :      1.39s CPU      1.52s WALL (       1 calls)
     electrons    :   2773.63s CPU   2794.62s WALL (       1 calls)

     Called by init_run:
     wfcinit      :      0.00s CPU      0.01s WALL (       1 calls)
     wfcinit:atom :      0.01s CPU      0.02s WALL (       1 calls)
     wfcinit:wfcr :     16.12s CPU     16.32s WALL (       1 calls)
     potinit      :      0.17s CPU      0.21s WALL (       1 calls)

     Called by electrons:
     c_bands      :   2773.61s CPU   2793.80s WALL (       1 calls)
     v_of_rho     :      0.05s CPU      0.06s WALL (       1 calls)
     v_h          :      0.00s CPU      0.00s WALL (       1 calls)
     v_xc         :      0.04s CPU      0.05s WALL (       1 calls)

     Called by c_bands:
     init_us_2    :      0.01s CPU      0.03s WALL (       1 calls)
     cegterg      :   2481.55s CPU   2499.83s WALL (       2 calls)

     Called by sum_band:

     Called by *egterg:
     h_psi        :     75.21s CPU     75.99s WALL (      25 calls)
     g_psi        :      0.34s CPU      0.34s WALL (      22 calls)
     cdiaghg      :   2096.00s CPU   2109.86s WALL (      23 calls)
     cegterg:over :    144.80s CPU    145.53s WALL (      22 calls)
     cegterg:upda :     91.56s CPU     92.19s WALL (      22 calls)
     cegterg:last :     59.63s CPU     59.87s WALL (       5 calls)

     Called by h_psi:
     h_psi:pot    :     73.37s CPU     74.11s WALL (      25 calls)
     h_psi:calbec :     10.56s CPU     10.66s WALL (      25 calls)
     vloc_psi     :     52.70s CPU     53.27s WALL (      25 calls)
     add_vuspsi   :     10.10s CPU     10.17s WALL (      25 calls)

     General routines
     calbec       :     10.56s CPU     10.65s WALL (      25 calls)
     fft          :      0.03s CPU      0.08s WALL (      10 calls)
     fftw         :     44.40s CPU     44.87s WALL (   54222 calls)
     davcio       :      0.00s CPU      0.86s WALL (       2 calls)
 
     Parallel routines
     fft_scatter  :     16.69s CPU     16.89s WALL (   54232 calls)
 
     PWSCF        : 47m15.12s CPU    47m51.45s WALL

 
   This run was terminated on:   0:38:29  12Dec2021            

=------------------------------------------------------------------------------=
   JOB DONE.
=------------------------------------------------------------------------------=
