
     Program PWSCF v.6.1 starts on  5May2019 at 14:23:44 

     This program is part of the open-source Quantum ESPRESSO suite
     for quantum simulation of materials; please cite
         "P. Giannozzi et al., J. Phys.:Condens. Matter 21 395502 (2009);
          URL http://www.quantum-espresso.org", 
     in publications or presentations arising from this work. More details at
     http://www.quantum-espresso.org/quote

     Parallel version (MPI), running on   180 processors
     K-points division:     npool     =       5
     R & G space division:  proc/nbgrp/npool/nimage =      36
     Waiting for input...
     Reading input from standard input
Warning: card &CELL ignored
Warning: card / ignored
Warning: card &IONS ignored
Warning: card / ignored

     Current dimensions of program PWSCF are:
     Max number of different atomic species (ntypx) = 10
     Max number of k-points (npk) =  40000
     Max angular momentum in pseudopotentials (lmaxx) =  3

     Subspace diagonalization in iterative solution of the eigenvalue problem:
     one sub-group per band group will be used
     scalapack distributed-memory algorithm (size of sub-group:  4*  4 procs)

 
     Parallelization info
     --------------------
     sticks:   dense  smooth     PW     G-vecs:    dense   smooth      PW
     Min         445     445    115                48143    48143    6337
     Max         446     446    116                48147    48147    6342
     Sum       16021   16021   4153              1733155  1733155  228215
 


     bravais-lattice index     =            0
     lattice parameter (alat)  =      28.4285  a.u.
     unit-cell volume          =   20997.1598 (a.u.)^3
     number of atoms/cell      =           71
     number of atomic types    =            2
     number of electrons       =       285.00
     number of Kohn-Sham states=          151
     kinetic-energy cutoff     =      72.0000  Ry
     charge density cutoff     =     288.0000  Ry
     convergence threshold     =      1.0E-08
     mixing beta               =       0.7000
     number of iterations used =            8  plain     mixing
     Exchange-correlation      = PBE ( 1  4  3  4 0 0)

     celldm(1)=  28.428531  celldm(2)=   0.000000  celldm(3)=   0.000000
     celldm(4)=   0.000000  celldm(5)=   0.000000  celldm(6)=   0.000000

     crystal axes: (cart. coord. in units of alat)
               a(1) = (   1.000000   0.000000   0.000000 )  
               a(2) = (  -0.500000   0.866025   0.000000 )  
               a(3) = (   0.000000   0.000000   1.055277 )  

     reciprocal axes: (cart. coord. in units 2 pi/alat)
               b(1) = (  1.000000  0.577350  0.000000 )  
               b(2) = (  0.000000  1.154701  0.000000 )  
               b(3) = (  0.000000  0.000000  0.947618 )  


     PseudoPot. # 1 for B  read from file:
     /sdcc/u/jxuucsc/pseudopotentials/oncv/dojo/nc-sr-04_pbe_standard/B.upf
     MD5 check sum: 72f82fc31bc892420d0cab7e25c88ab8
     Pseudo is Norm-conserving + core correction, Zval =  3.0
     Generated using ONCVPSP code by D. R. Hamann
     Using radial grid of 1534 points,  4 beta functions with: 
                l(1) =   0
                l(2) =   0
                l(3) =   1
                l(4) =   1

     PseudoPot. # 2 for N  read from file:
     /sdcc/u/jxuucsc/pseudopotentials/oncv/dojo/nc-sr-04_pbe_standard/N.upf
     MD5 check sum: d34365f73bb0e2ee98afc20ec3e87676
     Pseudo is Norm-conserving + core correction, Zval =  5.0
     Generated using ONCVPSP code by D. R. Hamann
     Using radial grid of 1058 points,  4 beta functions with: 
                l(1) =   0
                l(2) =   0
                l(3) =   1
                l(4) =   1

     atomic species   valence    mass     pseudopotential
        B              3.00    10.81100     B ( 1.00)
        N              5.00    14.00670     N ( 1.00)

     Starting magnetic structure 
     atomic species   magnetization
        B            1.000
        N            0.000

      2 Sym. Ops. (no inversion) found


                                    s                        frac. trans.

      isym =  1     identity                                     

 cryst.   s( 1) = (     1          0          0      )
                  (     0          1          0      )
                  (     0          0          1      )

 cart.    s( 1) = (  1.0000000  0.0000000  0.0000000 )
                  (  0.0000000  1.0000000  0.0000000 )
                  (  0.0000000  0.0000000  1.0000000 )


      isym =  2     inv. 180 deg rotation - cart. axis [0,0,1]   

 cryst.   s( 2) = (     1          0          0      )
                  (     0          1          0      )
                  (     0          0         -1      )

 cart.    s( 2) = (  1.0000000  0.0000000  0.0000000 )
                  (  0.0000000  1.0000000  0.0000000 )
                  (  0.0000000  0.0000000 -1.0000000 )


   Cartesian axes

     site n.     atom                  positions (alat units)
         1           B   tau(   1) = (   0.0847231   0.0481540   0.0000000  )
         2           B   tau(   2) = (   0.0016770   0.1914565   0.0000000  )
         3           B   tau(   3) = (  -0.0840778   0.3353945   0.0000000  )
         4           B   tau(   4) = (  -0.1696568   0.4797546   0.0000000  )
         5           B   tau(   5) = (  -0.2530748   0.6239652   0.0000000  )
         6           B   tau(   6) = (  -0.3348404   0.7684369   0.0000000  )
         7           B   tau(   7) = (   0.2505117   0.0502720   0.0000000  )
         8           B   tau(   8) = (   0.1709026   0.1983438   0.0000000  )
         9           B   tau(   9) = (   0.0817528   0.3373515   0.0000000  )
        10           B   tau(  10) = (  -0.0042095   0.4808807   0.0000000  )
        11           B   tau(  11) = (  -0.0867441   0.6252872   0.0000000  )
        12           B   tau(  12) = (  -0.1688195   0.7699870   0.0000000  )
        13           B   tau(  13) = (   0.4160692   0.0489274   0.0000000  )
        14           B   tau(  14) = (   0.3356978   0.1980139   0.0000000  )
        15           B   tau(  15) = (   0.2531664   0.3544380   0.0000000  )
        16           B   tau(  16) = (   0.1597980   0.4828478   0.0000000  )
        17           B   tau(  17) = (   0.0795233   0.6259253   0.0000000  )
        18           B   tau(  18) = (  -0.0021996   0.7698349   0.0000000  )
        19           B   tau(  19) = (   0.5841764   0.0456361   0.0000000  )
        20           B   tau(  20) = (   0.5048932   0.1891278   0.0000000  )
        21           N   tau(  21) = (   0.4218040   0.3315653   0.0000000  )
        22           B   tau(  22) = (   0.3177000   0.4662634   0.0000000  )
        23           B   tau(  23) = (   0.2467476   0.6231930   0.0000000  )
        24           B   tau(  24) = (   0.1655985   0.7678115   0.0000000  )
        25           B   tau(  25) = (   0.7514437   0.0444982   0.0000000  )
        26           B   tau(  26) = (   0.6701744   0.1882608   0.0000000  )
        27           B   tau(  27) = (   0.5866993   0.3309240   0.0000000  )
        28           B   tau(  28) = (   0.4944463   0.4730006   0.0000000  )
        29           B   tau(  29) = (   0.4117551   0.6155477   0.0000000  )
        30           B   tau(  30) = (   0.3330453   0.7654626   0.0000000  )
        31           B   tau(  31) = (   0.9178190   0.0451881   0.0000000  )
        32           B   tau(  32) = (   0.8352774   0.1897201   0.0000000  )
        33           B   tau(  33) = (   0.7506285   0.3340390   0.0000000  )
        34           B   tau(  34) = (   0.6637847   0.4779533   0.0000000  )
        35           B   tau(  35) = (   0.5798262   0.6206343   0.0000000  )
        36           B   tau(  36) = (   0.4986761   0.7652428   0.0000000  )
        37           N   tau(  37) = (   0.0009878   0.0948530   0.0000000  )
        38           N   tau(  38) = (  -0.0821535   0.2389025   0.0000000  )
        39           N   tau(  39) = (  -0.1675063   0.3833042   0.0000000  )
        40           N   tau(  40) = (  -0.2533358   0.5273925   0.0000000  )
        41           N   tau(  41) = (  -0.3366966   0.6711428   0.0000000  )
        42           N   tau(  42) = (  -0.4178046   0.8162870   0.0000000  )
        43           N   tau(  43) = (   0.1683492   0.0997017   0.0000000  )
        44           N   tau(  44) = (   0.0846690   0.2413717   0.0000000  )
        45           N   tau(  45) = (  -0.0021402   0.3846286   0.0000000  )
        46           N   tau(  46) = (  -0.0871835   0.5289095   0.0000000  )
        47           N   tau(  47) = (  -0.1698997   0.6733168   0.0000000  )
        48           N   tau(  48) = (  -0.2515372   0.8187653   0.0000000  )
        49           N   tau(  49) = (   0.3340221   0.1000458   0.0000000  )
        50           N   tau(  50) = (   0.2554617   0.2523207   0.0000000  )
        51           N   tau(  51) = (   0.1629030   0.3873751   0.0000000  )
        52           N   tau(  52) = (   0.0777490   0.5302427   0.0000000  )
        53           N   tau(  53) = (  -0.0034931   0.6738819   0.0000000  )
        54           N   tau(  54) = (  -0.0852922   0.8185052   0.0000000  )
        55           N   tau(  55) = (   0.5011444   0.0940486   0.0000000  )
        56           N   tau(  56) = (   0.4240715   0.2398383   0.0000000  )
        57           N   tau(  57) = (   0.2440043   0.5279301   0.0000000  )
        58           N   tau(  58) = (   0.1639025   0.6722354   0.0000000  )
        59           N   tau(  59) = (   0.0824418   0.8161250   0.0000000  )
        60           N   tau(  60) = (   0.6683863   0.0925773   0.0000000  )
        61           N   tau(  61) = (   0.5876484   0.2358831   0.0000000  )
        62           N   tau(  62) = (   0.5023518   0.3755625   0.0000000  )
        63           N   tau(  63) = (   0.4073170   0.5153750   0.0000000  )
        64           N   tau(  64) = (   0.3313017   0.6686342   0.0000000  )
        65           N   tau(  65) = (   0.2501000   0.8144031   0.0000000  )
        66           N   tau(  66) = (   0.8346795   0.0932545   0.0000000  )
        67           N   tau(  67) = (   0.7521500   0.2376894   0.0000000  )
        68           N   tau(  68) = (   0.6671665   0.3817227   0.0000000  )
        69           N   tau(  69) = (   0.5784824   0.5234233   0.0000000  )
        70           N   tau(  70) = (   0.4959339   0.6671172   0.0000000  )
        71           N   tau(  71) = (   0.4163257   0.8143468   0.0000000  )

   Crystallographic axes

     site n.     atom                  positions (cryst. coord.)
         1           B   tau(   1) = (  0.1125249  0.0556035  0.0000000  )
         2           B   tau(   2) = (  0.1122145  0.2210750  0.0000000  )
         3           B   tau(   3) = (  0.1095623  0.3872802  0.0000000  )
         4           B   tau(   4) = (  0.1073296  0.5539729  0.0000000  )
         5           B   tau(   5) = (  0.1071717  0.7204929  0.0000000  )
         6           B   tau(   6) = (  0.1088169  0.8873145  0.0000000  )
         7           B   tau(   7) = (  0.2795363  0.0580492  0.0000000  )
         8           B   tau(   8) = (  0.2854165  0.2290277  0.0000000  )
         9           B   tau(   9) = (  0.2765228  0.3895400  0.0000000  )
        10           B   tau(  10) = (  0.2734271  0.5552732  0.0000000  )
        11           B   tau(  11) = (  0.2742656  0.7220195  0.0000000  )
        12           B   tau(  12) = (  0.2757327  0.8891044  0.0000000  )
        13           B   tau(  13) = (  0.4443174  0.0564964  0.0000000  )
        14           B   tau(  14) = (  0.4500212  0.2286468  0.0000000  )
        15           B   tau(  15) = (  0.4578013  0.4092698  0.0000000  )
        16           B   tau(  16) = (  0.4385703  0.5575447  0.0000000  )
        17           B   tau(  17) = (  0.4409014  0.7227563  0.0000000  )
        18           B   tau(  18) = (  0.4422648  0.8889287  0.0000000  )
        19           B   tau(  19) = (  0.6105244  0.0526960  0.0000000  )
        20           B   tau(  20) = (  0.6140862  0.2183860  0.0000000  )
        21           N   tau(  21) = (  0.6132333  0.3828586  0.0000000  )
        22           B   tau(  22) = (  0.5868973  0.5383946  0.0000000  )
        23           B   tau(  23) = (  0.6065483  0.7196013  0.0000000  )
        24           B   tau(  24) = (  0.6088947  0.8865923  0.0000000  )
        25           B   tau(  25) = (  0.7771348  0.0513821  0.0000000  )
        26           B   tau(  26) = (  0.7788669  0.2173848  0.0000000  )
        27           B   tau(  27) = (  0.7777584  0.3821182  0.0000000  )
        28           B   tau(  28) = (  0.7675334  0.5461741  0.0000000  )
        29           B   tau(  29) = (  0.7671417  0.7107732  0.0000000  )
        30           B   tau(  30) = (  0.7749854  0.8838801  0.0000000  )
        31           B   tau(  31) = (  0.9439084  0.0521788  0.0000000  )
        32           B   tau(  32) = (  0.9448123  0.2190699  0.0000000  )
        33           B   tau(  33) = (  0.9434860  0.3857150  0.0000000  )
        34           B   tau(  34) = (  0.9397312  0.5518930  0.0000000  )
        35           B   tau(  35) = (  0.9381496  0.7166468  0.0000000  )
        36           B   tau(  36) = (  0.9404893  0.8836263  0.0000000  )
        37           N   tau(  37) = (  0.0557511  0.1095268  0.0000000  )
        38           N   tau(  38) = (  0.0557769  0.2758609  0.0000000  )
        39           N   tau(  39) = (  0.0537945  0.4426015  0.0000000  )
        40           N   tau(  40) = (  0.0511544  0.6089805  0.0000000  )
        41           N   tau(  41) = (  0.0507879  0.7749689  0.0000000  )
        42           N   tau(  42) = (  0.0534789  0.9425670  0.0000000  )
        43           N   tau(  43) = (  0.2259120  0.1151257  0.0000000  )
        44           N   tau(  44) = (  0.2240250  0.2787120  0.0000000  )
        45           N   tau(  45) = (  0.2199253  0.4441309  0.0000000  )
        46           N   tau(  46) = (  0.2181825  0.6107321  0.0000000  )
        47           N   tau(  47) = (  0.2188399  0.7774793  0.0000000  )
        48           N   tau(  48) = (  0.2211771  0.9454287  0.0000000  )
        49           N   tau(  49) = (  0.3917836  0.1155230  0.0000000  )
        50           N   tau(  50) = (  0.4011392  0.2913549  0.0000000  )
        51           N   tau(  51) = (  0.3865541  0.4473022  0.0000000  )
        52           N   tau(  52) = (  0.3838848  0.6122716  0.0000000  )
        53           N   tau(  53) = (  0.3855727  0.7781317  0.0000000  )
        54           N   tau(  54) = (  0.3872720  0.9451284  0.0000000  )
        55           N   tau(  55) = (  0.5554433  0.1085980  0.0000000  )
        56           N   tau(  56) = (  0.5625422  0.2769414  0.0000000  )
        57           N   tau(  57) = (  0.5488049  0.6096012  0.0000000  )
        58           N   tau(  58) = (  0.5520177  0.7762306  0.0000000  )
        59           N   tau(  59) = (  0.5536318  0.9423799  0.0000000  )
        60           N   tau(  60) = (  0.7218358  0.1068991  0.0000000  )
        61           N   tau(  61) = (  0.7238356  0.2723744  0.0000000  )
        62           N   tau(  62) = (  0.7191830  0.4336623  0.0000000  )
        63           N   tau(  63) = (  0.7048689  0.5951038  0.0000000  )
        64           N   tau(  64) = (  0.7173379  0.7720723  0.0000000  )
        65           N   tau(  65) = (  0.7202958  0.9403917  0.0000000  )
        66           N   tau(  66) = (  0.8885200  0.1076810  0.0000000  )
        67           N   tau(  67) = (  0.8893801  0.2744601  0.0000000  )
        68           N   tau(  68) = (  0.8875542  0.4407755  0.0000000  )
        69           N   tau(  69) = (  0.8806809  0.6043971  0.0000000  )
        70           N   tau(  70) = (  0.8810942  0.7703206  0.0000000  )
        71           N   tau(  71) = (  0.8864891  0.9403267  0.0000000  )

     number of k points=     5  Marzari-Vanderbilt smearing, width (Ry)=  0.0010
                       cart. coord. in units 2pi/alat
        k(    1) = (   0.0000000   0.0000000   0.0000000), wk =   0.1111111
        k(    2) = (   0.0000000   0.3849002   0.0000000), wk =   0.2222222
        k(    3) = (   0.3333333   0.5773503   0.0000000), wk =   0.2222222
        k(    4) = (  -0.3333333   0.1924501   0.0000000), wk =   0.2222222
        k(    5) = (   0.3333333   0.1924501   0.0000000), wk =   0.2222222

                       cryst. coord.
        k(    1) = (   0.0000000   0.0000000   0.0000000), wk =   0.1111111
        k(    2) = (   0.0000000   0.3333333   0.0000000), wk =   0.2222222
        k(    3) = (   0.3333333   0.3333333   0.0000000), wk =   0.2222222
        k(    4) = (  -0.3333333   0.3333333   0.0000000), wk =   0.2222222
        k(    5) = (   0.3333333   0.0000000   0.0000000), wk =   0.2222222

     Dense  grid:  1733155 G-vectors     FFT dimensions: ( 160, 160, 180)

     Estimated max dynamical RAM per process >     199.58MB

     Estimated total allocated dynamical RAM >   35924.61MB
     Generating pointlists ...
     new r_m :   0.0391 (alat units)  1.1112 (a.u.) for type    1
     new r_m :   0.0378 (alat units)  1.0760 (a.u.) for type    2

     Initial potential from superposition of free atoms
     Check: negative starting charge=(component1):   -0.000761
     Check: negative starting charge=(component2):   -0.000859

     starting charge  284.99101, renormalised to  285.00000

     negative rho (up, down):  7.610E-04 8.588E-04
     Starting wfc are  284 randomized atomic wfcs

     total cpu time spent up to now is       11.7 secs

     per-process dynamical memory:   166.8 Mb

     Self-consistent Calculation

     iteration #  1     ecut=    72.00 Ry     beta=0.70
     Davidson diagonalization with overlap
     ethr =  1.00E-02,  avg # of iterations =  2.0

     negative rho (up, down):  3.539E-05 6.103E-05

     total cpu time spent up to now is       23.8 secs

     total energy              =    -951.15368882 Ry
     Harris-Foulkes estimate   =    -957.58897954 Ry
     estimated scf accuracy    <      17.43069489 Ry

     total magnetization       =     1.00 Bohr mag/cell
     absolute magnetization    =    17.39 Bohr mag/cell

     iteration #  2     ecut=    72.00 Ry     beta=0.70
     Davidson diagonalization with overlap
     ethr =  6.12E-03,  avg # of iterations =  3.3

     negative rho (up, down):  7.267E-06 1.375E-05

     total cpu time spent up to now is       37.2 secs

     total energy              =    -955.60612544 Ry
     Harris-Foulkes estimate   =    -961.14329155 Ry
     estimated scf accuracy    <      12.34782899 Ry

     total magnetization       =     1.00 Bohr mag/cell
     absolute magnetization    =    12.42 Bohr mag/cell

     iteration #  3     ecut=    72.00 Ry     beta=0.70
     Davidson diagonalization with overlap
     ethr =  4.33E-03,  avg # of iterations =  2.7

     negative rho (up, down):  1.372E-06 2.866E-06

     total cpu time spent up to now is       49.9 secs

     total energy              =    -957.91392942 Ry
     Harris-Foulkes estimate   =    -958.53838957 Ry
     estimated scf accuracy    <       1.61017197 Ry

     total magnetization       =     1.00 Bohr mag/cell
     absolute magnetization    =     8.73 Bohr mag/cell

     iteration #  4     ecut=    72.00 Ry     beta=0.70
     Davidson diagonalization with overlap
     ethr =  5.65E-04,  avg # of iterations =  5.2

     negative rho (up, down):  1.251E-08 2.265E-08

     total cpu time spent up to now is       63.2 secs

     total energy              =    -958.37151783 Ry
     Harris-Foulkes estimate   =    -958.62395351 Ry
     estimated scf accuracy    <       1.15358763 Ry

     total magnetization       =     1.00 Bohr mag/cell
     absolute magnetization    =     7.07 Bohr mag/cell

     iteration #  5     ecut=    72.00 Ry     beta=0.70
     Davidson diagonalization with overlap
     ethr =  4.05E-04,  avg # of iterations =  3.6

     total cpu time spent up to now is       73.5 secs

     total energy              =    -958.65731853 Ry
     Harris-Foulkes estimate   =    -958.74468332 Ry
     estimated scf accuracy    <       0.30762462 Ry

     total magnetization       =     1.00 Bohr mag/cell
     absolute magnetization    =     5.27 Bohr mag/cell

     iteration #  6     ecut=    72.00 Ry     beta=0.70
     Davidson diagonalization with overlap
     ethr =  1.08E-04,  avg # of iterations =  5.5

     total cpu time spent up to now is       84.5 secs

     total energy              =    -958.71638826 Ry
     Harris-Foulkes estimate   =    -958.70598654 Ry
     estimated scf accuracy    <       0.03276130 Ry

     total magnetization       =     1.00 Bohr mag/cell
     absolute magnetization    =     4.24 Bohr mag/cell

     iteration #  7     ecut=    72.00 Ry     beta=0.70
     Davidson diagonalization with overlap
     c_bands:  1 eigenvalues not converged
     ethr =  1.15E-05,  avg # of iterations = 11.5

     total cpu time spent up to now is      102.0 secs

     total energy              =    -958.73620486 Ry
     Harris-Foulkes estimate   =    -958.72420786 Ry
     estimated scf accuracy    <       0.01005781 Ry

     total magnetization       =     1.00 Bohr mag/cell
     absolute magnetization    =     3.17 Bohr mag/cell

     iteration #  8     ecut=    72.00 Ry     beta=0.70
     Davidson diagonalization with overlap
     ethr =  3.53E-06,  avg # of iterations =  8.0

     negative rho (up, down):  7.819E-06 5.520E-06

     total cpu time spent up to now is      121.0 secs

     total energy              =    -958.74391836 Ry
     Harris-Foulkes estimate   =    -958.74179401 Ry
     estimated scf accuracy    <       0.00304244 Ry

     total magnetization       =     1.00 Bohr mag/cell
     absolute magnetization    =     2.12 Bohr mag/cell

     iteration #  9     ecut=    72.00 Ry     beta=0.70
     Davidson diagonalization with overlap
     ethr =  1.07E-06,  avg # of iterations =  7.4

     negative rho (up, down):  1.059E-06 4.228E-07

     total cpu time spent up to now is      140.4 secs

     total energy              =    -958.74643070 Ry
     Harris-Foulkes estimate   =    -958.74642833 Ry
     estimated scf accuracy    <       0.00055083 Ry

     total magnetization       =     1.00 Bohr mag/cell
     absolute magnetization    =     1.34 Bohr mag/cell

     iteration # 10     ecut=    72.00 Ry     beta=0.70
     Davidson diagonalization with overlap
     ethr =  1.93E-07,  avg # of iterations =  3.0

     total cpu time spent up to now is      153.2 secs

     total energy              =    -958.74657521 Ry
     Harris-Foulkes estimate   =    -958.74657441 Ry
     estimated scf accuracy    <       0.00014802 Ry

     total magnetization       =     1.00 Bohr mag/cell
     absolute magnetization    =     1.23 Bohr mag/cell

     iteration # 11     ecut=    72.00 Ry     beta=0.70
     Davidson diagonalization with overlap
     ethr =  5.19E-08,  avg # of iterations =  3.0

     total cpu time spent up to now is      166.1 secs

     total energy              =    -958.74662490 Ry
     Harris-Foulkes estimate   =    -958.74662264 Ry
     estimated scf accuracy    <       0.00003010 Ry

     total magnetization       =     1.00 Bohr mag/cell
     absolute magnetization    =     1.17 Bohr mag/cell

     iteration # 12     ecut=    72.00 Ry     beta=0.70
     Davidson diagonalization with overlap
     ethr =  1.06E-08,  avg # of iterations =  3.0

     total cpu time spent up to now is      179.3 secs

     total energy              =    -958.74663846 Ry
     Harris-Foulkes estimate   =    -958.74663755 Ry
     estimated scf accuracy    <       0.00000517 Ry

     total magnetization       =     1.00 Bohr mag/cell
     absolute magnetization    =     1.12 Bohr mag/cell

     iteration # 13     ecut=    72.00 Ry     beta=0.70
     Davidson diagonalization with overlap
     ethr =  1.81E-09,  avg # of iterations =  3.0

     total cpu time spent up to now is      192.9 secs

     total energy              =    -958.74664059 Ry
     Harris-Foulkes estimate   =    -958.74664031 Ry
     estimated scf accuracy    <       0.00000111 Ry

     total magnetization       =     1.00 Bohr mag/cell
     absolute magnetization    =     1.11 Bohr mag/cell

     iteration # 14     ecut=    72.00 Ry     beta=0.70
     Davidson diagonalization with overlap
     ethr =  3.88E-10,  avg # of iterations =  4.0

     total cpu time spent up to now is      206.3 secs

     total energy              =    -958.74664110 Ry
     Harris-Foulkes estimate   =    -958.74664117 Ry
     estimated scf accuracy    <       0.00000022 Ry

     total magnetization       =     1.00 Bohr mag/cell
     absolute magnetization    =     1.11 Bohr mag/cell

     iteration # 15     ecut=    72.00 Ry     beta=0.70
     Davidson diagonalization with overlap
     ethr =  7.79E-11,  avg # of iterations =  3.0

     total cpu time spent up to now is      218.1 secs

     total energy              =    -958.74664118 Ry
     Harris-Foulkes estimate   =    -958.74664116 Ry
     estimated scf accuracy    <       0.00000002 Ry

     total magnetization       =     1.00 Bohr mag/cell
     absolute magnetization    =     1.11 Bohr mag/cell

     iteration # 16     ecut=    72.00 Ry     beta=0.70
     Davidson diagonalization with overlap
     ethr =  7.28E-12,  avg # of iterations =  4.5
 
     Magnetic moment per site:
     atom:    1    charge:    0.8188    magn:    0.0001    constr:    0.0000
     atom:    2    charge:    0.8309    magn:    0.0000    constr:    0.0000
     atom:    3    charge:    0.8414    magn:   -0.0000    constr:    0.0000
     atom:    4    charge:    0.8380    magn:    0.0002    constr:    0.0000
     atom:    5    charge:    0.8364    magn:    0.0005    constr:    0.0000
     atom:    6    charge:    0.8276    magn:    0.0000    constr:    0.0000
     atom:    7    charge:    0.8263    magn:    0.0008    constr:    0.0000
     atom:    8    charge:    0.7973    magn:   -0.0001    constr:    0.0000
     atom:    9    charge:    0.8470    magn:    0.0002    constr:    0.0000
     atom:   10    charge:    0.8463    magn:    0.0002    constr:    0.0000
     atom:   11    charge:    0.8377    magn:    0.0003    constr:    0.0000
     atom:   12    charge:    0.8366    magn:    0.0005    constr:    0.0000
     atom:   13    charge:    0.8358    magn:    0.0024    constr:    0.0000
     atom:   14    charge:    0.8158    magn:    0.0120    constr:    0.0000
     atom:   15    charge:    0.7405    magn:    0.0041    constr:    0.0000
     atom:   16    charge:    0.8650    magn:    0.0012    constr:    0.0000
     atom:   17    charge:    0.8447    magn:    0.0002    constr:    0.0000
     atom:   18    charge:    0.8386    magn:    0.0003    constr:    0.0000
     atom:   19    charge:    0.8428    magn:   -0.0001    constr:    0.0000
     atom:   20    charge:    0.8650    magn:    0.0051    constr:    0.0000
     atom:   21    charge:    2.4846    magn:    0.2953    constr:    0.0000
     atom:   22    charge:    0.7414    magn:    0.0041    constr:    0.0000
     atom:   23    charge:    0.8490    magn:    0.0002    constr:    0.0000
     atom:   24    charge:    0.8417    magn:   -0.0000    constr:    0.0000
     atom:   25    charge:    0.8406    magn:    0.0001    constr:    0.0000
     atom:   26    charge:    0.8536    magn:    0.0013    constr:    0.0000
     atom:   27    charge:    0.8642    magn:    0.0051    constr:    0.0000
     atom:   28    charge:    0.8156    magn:    0.0121    constr:    0.0000
     atom:   29    charge:    0.7978    magn:   -0.0001    constr:    0.0000
     atom:   30    charge:    0.8312    magn:    0.0000    constr:    0.0000
     atom:   31    charge:    0.8314    magn:    0.0000    constr:    0.0000
     atom:   32    charge:    0.8420    magn:    0.0001    constr:    0.0000
     atom:   33    charge:    0.8442    magn:   -0.0001    constr:    0.0000
     atom:   34    charge:    0.8338    magn:    0.0024    constr:    0.0000
     atom:   35    charge:    0.8263    magn:    0.0008    constr:    0.0000
     atom:   36    charge:    0.8171    magn:    0.0001    constr:    0.0000
     atom:   37    charge:    2.6255    magn:    0.0000    constr:    0.0000
     atom:   38    charge:    2.6266    magn:    0.0001    constr:    0.0000
     atom:   39    charge:    2.6314    magn:   -0.0002    constr:    0.0000
     atom:   40    charge:    2.6242    magn:    0.0004    constr:    0.0000
     atom:   41    charge:    2.6141    magn:   -0.0002    constr:    0.0000
     atom:   42    charge:    2.6114    magn:    0.0001    constr:    0.0000
     atom:   43    charge:    2.6044    magn:    0.0001    constr:    0.0000
     atom:   44    charge:    2.6245    magn:   -0.0001    constr:    0.0000
     atom:   45    charge:    2.6315    magn:   -0.0001    constr:    0.0000
     atom:   46    charge:    2.6313    magn:    0.0000    constr:    0.0000
     atom:   47    charge:    2.6253    magn:    0.0001    constr:    0.0000
     atom:   48    charge:    2.6156    magn:   -0.0002    constr:    0.0000
     atom:   49    charge:    2.6095    magn:    0.0019    constr:    0.0000
     atom:   50    charge:    2.5646    magn:   -0.0038    constr:    0.0000
     atom:   51    charge:    2.6419    magn:    0.0004    constr:    0.0000
     atom:   52    charge:    2.6462    magn:    0.0002    constr:    0.0000
     atom:   53    charge:    2.6324    magn:    0.0000    constr:    0.0000
     atom:   54    charge:    2.6242    magn:    0.0004    constr:    0.0000
     atom:   55    charge:    2.6360    magn:    0.0002    constr:    0.0000
     atom:   56    charge:    2.5971    magn:    0.0358    constr:    0.0000
     atom:   57    charge:    2.6422    magn:    0.0004    constr:    0.0000
     atom:   58    charge:    2.6327    magn:   -0.0001    constr:    0.0000
     atom:   59    charge:    2.6315    magn:   -0.0002    constr:    0.0000
     atom:   60    charge:    2.6341    magn:    0.0019    constr:    0.0000
     atom:   61    charge:    2.6491    magn:    0.0151    constr:    0.0000
     atom:   62    charge:    2.5969    magn:    0.0357    constr:    0.0000
     atom:   63    charge:    2.5645    magn:   -0.0038    constr:    0.0000
     atom:   64    charge:    2.6249    magn:   -0.0001    constr:    0.0000
     atom:   65    charge:    2.6271    magn:    0.0001    constr:    0.0000
     atom:   66    charge:    2.6264    magn:    0.0006    constr:    0.0000
     atom:   67    charge:    2.6329    magn:    0.0019    constr:    0.0000
     atom:   68    charge:    2.6366    magn:    0.0001    constr:    0.0000
     atom:   69    charge:    2.6085    magn:    0.0019    constr:    0.0000
     atom:   70    charge:    2.6043    magn:    0.0001    constr:    0.0000
     atom:   71    charge:    2.6255    magn:    0.0000    constr:    0.0000

     total cpu time spent up to now is      234.0 secs

     End of self-consistent calculation

 ------ SPIN UP ------------


          k = 0.0000 0.0000 0.0000 (216681 PWs)   bands (ev):

   -23.6661 -21.2286 -20.8673 -20.8116 -20.7247 -20.7039 -20.6985 -20.2097
   -20.1014 -19.8246 -19.7725 -19.6854 -19.6556 -19.5417 -19.4944 -19.3951
   -19.2912 -19.2873 -19.1066 -18.7483 -18.5445 -18.4274 -18.3611 -18.3460
   -18.3275 -18.3099 -18.3041 -18.2753 -18.2606 -18.2194 -18.1479 -18.1003
   -18.0779 -17.7366 -17.5909 -15.1302 -12.6419 -12.5617 -12.4073 -12.2563
   -12.0733 -11.8365 -11.8113 -11.7528 -11.7305 -11.7009 -11.6934 -11.6293
   -11.6186 -11.5621 -11.4687 -11.3778 -11.1476 -10.8384 -10.8112 -10.6985
   -10.6638 -10.5284 -10.4182 -10.3085  -9.8141  -9.7484  -9.4129  -9.2999
    -9.1655  -9.1553  -9.1529  -9.1412  -9.0811  -9.0513  -9.0294  -8.9938
    -8.9888  -8.9672  -8.9227  -8.8803  -8.8408  -8.6707  -8.5114  -8.4184
    -8.2360  -8.2050  -8.1753  -8.1374  -8.0808  -8.0515  -7.7774  -7.7563
    -7.7141  -7.6921  -7.5899  -7.5485  -7.5372  -7.5090  -7.4671  -7.4212
    -7.2747  -7.2693  -7.2166  -7.2015  -7.0479  -7.0335  -7.0065  -6.9549
    -6.9427  -6.8740  -6.8392  -6.8316  -6.7384  -6.6708  -6.4262  -6.3412
    -6.3389  -6.2781  -6.2689  -6.1960  -6.1567  -6.0622  -5.9226  -5.9165
    -5.8533  -5.8112  -5.4444  -5.2138  -5.1012  -5.0784  -5.0120  -4.8200
    -4.7772  -4.7541  -4.7534  -4.7378  -4.7354  -4.6817  -4.6799  -4.6131
    -4.6124  -4.5180  -4.5087  -3.8569  -3.6846  -2.9999  -1.8367   0.1973
     1.0063   1.0388   1.0559   1.1656   1.1706   1.3893   1.6780

     occupation numbers 
     1.0000   1.0000   1.0000   1.0000   1.0000   1.0000   1.0000   1.0000
     1.0000   1.0000   1.0000   1.0000   1.0000   1.0000   1.0000   1.0000
     1.0000   1.0000   1.0000   1.0000   1.0000   1.0000   1.0000   1.0000
     1.0000   1.0000   1.0000   1.0000   1.0000   1.0000   1.0000   1.0000
     1.0000   1.0000   1.0000   1.0000   1.0000   1.0000   1.0000   1.0000
     1.0000   1.0000   1.0000   1.0000   1.0000   1.0000   1.0000   1.0000
     1.0000   1.0000   1.0000   1.0000   1.0000   1.0000   1.0000   1.0000
     1.0000   1.0000   1.0000   1.0000   1.0000   1.0000   1.0000   1.0000
     1.0000   1.0000   1.0000   1.0000   1.0000   1.0000   1.0000   1.0000
     1.0000   1.0000   1.0000   1.0000   1.0000   1.0000   1.0000   1.0000
     1.0000   1.0000   1.0000   1.0000   1.0000   1.0000   1.0000   1.0000
     1.0000   1.0000   1.0000   1.0000   1.0000   1.0000   1.0000   1.0000
     1.0000   1.0000   1.0000   1.0000   1.0000   1.0000   1.0000   1.0000
     1.0000   1.0000   1.0000   1.0000   1.0000   1.0000   1.0000   1.0000
     1.0000   1.0000   1.0000   1.0000   1.0000   1.0000   1.0000   1.0000
     1.0000   1.0000   1.0000   1.0000   1.0000   1.0000   1.0000   1.0000
     1.0000   1.0000   1.0000   1.0000   1.0000   1.0000   1.0000   1.0000
     1.0000   1.0000   1.0000   1.0000   1.0000   1.0000   1.0000   0.0000
     0.0000   0.0000   0.0000   0.0000   0.0000   0.0000   0.0000

          k = 0.0000 0.3849 0.0000 (216688 PWs)   bands (ev):

   -23.6661 -21.1871 -21.0422 -20.8456 -20.7087 -20.5719 -20.4101 -20.3678
   -20.1918 -20.0093 -19.9038 -19.6917 -19.6240 -19.5621 -19.4031 -19.2623
   -19.1391 -19.0581 -18.9321 -18.8303 -18.7928 -18.6931 -18.5917 -18.4702
   -18.3853 -18.3161 -18.2790 -18.2521 -18.1512 -18.1005 -18.0535 -18.0023
   -17.8965 -17.7891 -17.6591 -15.1308 -12.5611 -12.4687 -12.3499 -12.2549
   -12.2013 -12.1583 -12.0336 -11.9293 -11.7773 -11.7038 -11.6205 -11.5453
   -11.5361 -11.3747 -11.3264 -11.2114 -11.0449 -11.0175 -10.8571 -10.6492
   -10.5327 -10.3237 -10.2239 -10.0286  -9.9560  -9.9223  -9.7659  -9.6378
    -9.5853  -9.4945  -9.4062  -9.2572  -9.1704  -9.1490  -8.9224  -8.8541
    -8.7284  -8.6815  -8.5580  -8.5059  -8.4819  -8.4331  -8.3628  -8.3100
    -8.2759  -8.2684  -8.2140  -8.1611  -8.0728  -8.0150  -7.9737  -7.8487
    -7.8277  -7.7716  -7.6826  -7.6798  -7.6325  -7.5504  -7.5066  -7.5027
    -7.4555  -7.3781  -7.3716  -7.2561  -7.1758  -7.0815  -7.0229  -6.9016
    -6.8756  -6.7641  -6.7067  -6.6344  -6.6088  -6.5630  -6.4625  -6.3766
    -6.3152  -6.2567  -6.1845  -6.1011  -6.0226  -5.8744  -5.8087  -5.7503
    -5.6389  -5.5516  -5.5203  -5.5135  -5.3954  -5.3137  -5.2822  -5.1663
    -5.1649  -4.9131  -4.8280  -4.7443  -4.6947  -4.6259  -4.5393  -4.4523
    -4.3315  -4.2525  -4.1954  -3.9350  -3.8300  -3.0095  -1.8399   0.2033
     1.1050   1.1290   1.2141   1.2574   1.2819   1.3303   1.4195

     occupation numbers 
     1.0000   1.0000   1.0000   1.0000   1.0000   1.0000   1.0000   1.0000
     1.0000   1.0000   1.0000   1.0000   1.0000   1.0000   1.0000   1.0000
     1.0000   1.0000   1.0000   1.0000   1.0000   1.0000   1.0000   1.0000
     1.0000   1.0000   1.0000   1.0000   1.0000   1.0000   1.0000   1.0000
     1.0000   1.0000   1.0000   1.0000   1.0000   1.0000   1.0000   1.0000
     1.0000   1.0000   1.0000   1.0000   1.0000   1.0000   1.0000   1.0000
     1.0000   1.0000   1.0000   1.0000   1.0000   1.0000   1.0000   1.0000
     1.0000   1.0000   1.0000   1.0000   1.0000   1.0000   1.0000   1.0000
     1.0000   1.0000   1.0000   1.0000   1.0000   1.0000   1.0000   1.0000
     1.0000   1.0000   1.0000   1.0000   1.0000   1.0000   1.0000   1.0000
     1.0000   1.0000   1.0000   1.0000   1.0000   1.0000   1.0000   1.0000
     1.0000   1.0000   1.0000   1.0000   1.0000   1.0000   1.0000   1.0000
     1.0000   1.0000   1.0000   1.0000   1.0000   1.0000   1.0000   1.0000
     1.0000   1.0000   1.0000   1.0000   1.0000   1.0000   1.0000   1.0000
     1.0000   1.0000   1.0000   1.0000   1.0000   1.0000   1.0000   1.0000
     1.0000   1.0000   1.0000   1.0000   1.0000   1.0000   1.0000   1.0000
     1.0000   1.0000   1.0000   1.0000   1.0000   1.0000   1.0000   1.0000
     1.0000   1.0000   1.0000   1.0000   1.0000   1.0000   1.0000   0.0000
     0.0000   0.0000   0.0000   0.0000   0.0000   0.0000   0.0000

          k = 0.3333 0.5774 0.0000 (216546 PWs)   bands (ev):

   -23.6661 -21.1469 -21.0979 -20.8837 -20.6753 -20.5482 -20.3688 -20.2882
   -20.1387 -20.0651 -20.0441 -19.9383 -19.5482 -19.4623 -19.2597 -19.1920
   -19.1562 -19.0241 -18.9172 -18.8743 -18.7275 -18.6813 -18.6230 -18.5808
   -18.5115 -18.4827 -18.2684 -18.2007 -18.1203 -18.0082 -17.9851 -17.9557
   -17.9022 -17.7947 -17.7007 -15.1297 -12.5381 -12.4841 -12.3151 -12.2681
   -12.1459 -12.0372 -11.9998 -11.9487 -11.8946 -11.8451 -11.7985 -11.7001
   -11.5618 -11.5309 -11.2598 -10.9893 -10.7976 -10.6936 -10.5642 -10.5445
   -10.5234 -10.4203 -10.3781 -10.1859 -10.1567 -10.0866  -9.9594  -9.7904
    -9.7326  -9.3679  -9.2123  -9.1415  -9.0144  -8.9294  -8.9076  -8.8360
    -8.7439  -8.7355  -8.6426  -8.6189  -8.6054  -8.5785  -8.3645  -8.3365
    -8.2222  -8.2203  -8.0848  -7.9890  -7.9594  -7.9364  -7.9010  -7.8707
    -7.8647  -7.8227  -7.7979  -7.7558  -7.6666  -7.6540  -7.5758  -7.4805
    -7.3998  -7.3595  -7.2971  -7.2326  -7.1985  -7.1544  -7.1099  -7.0565
    -6.9653  -6.8289  -6.7581  -6.6852  -6.5187  -6.4501  -6.3504  -6.2943
    -6.1654  -6.1267  -6.0617  -6.0074  -5.9949  -5.9382  -5.8773  -5.8124
    -5.5794  -5.5592  -5.5114  -5.5112  -5.3511  -5.3432  -5.2307  -5.2036
    -5.1877  -5.1149  -5.0456  -5.0405  -4.7253  -4.4804  -4.4484  -4.2876
    -4.2383  -4.2033  -4.0966  -3.9876  -3.9515  -3.0206  -1.8353   0.1957
     1.0927   1.1272   1.1427   1.1901   1.2347   1.3824   1.4844

     occupation numbers 
     1.0000   1.0000   1.0000   1.0000   1.0000   1.0000   1.0000   1.0000
     1.0000   1.0000   1.0000   1.0000   1.0000   1.0000   1.0000   1.0000
     1.0000   1.0000   1.0000   1.0000   1.0000   1.0000   1.0000   1.0000
     1.0000   1.0000   1.0000   1.0000   1.0000   1.0000   1.0000   1.0000
     1.0000   1.0000   1.0000   1.0000   1.0000   1.0000   1.0000   1.0000
     1.0000   1.0000   1.0000   1.0000   1.0000   1.0000   1.0000   1.0000
     1.0000   1.0000   1.0000   1.0000   1.0000   1.0000   1.0000   1.0000
     1.0000   1.0000   1.0000   1.0000   1.0000   1.0000   1.0000   1.0000
     1.0000   1.0000   1.0000   1.0000   1.0000   1.0000   1.0000   1.0000
     1.0000   1.0000   1.0000   1.0000   1.0000   1.0000   1.0000   1.0000
     1.0000   1.0000   1.0000   1.0000   1.0000   1.0000   1.0000   1.0000
     1.0000   1.0000   1.0000   1.0000   1.0000   1.0000   1.0000   1.0000
     1.0000   1.0000   1.0000   1.0000   1.0000   1.0000   1.0000   1.0000
     1.0000   1.0000   1.0000   1.0000   1.0000   1.0000   1.0000   1.0000
     1.0000   1.0000   1.0000   1.0000   1.0000   1.0000   1.0000   1.0000
     1.0000   1.0000   1.0000   1.0000   1.0000   1.0000   1.0000   1.0000
     1.0000   1.0000   1.0000   1.0000   1.0000   1.0000   1.0000   1.0000
     1.0000   1.0000   1.0000   1.0000   1.0000   1.0000   1.0000   0.0000
     0.0000   0.0000   0.0000   0.0000   0.0000   0.0000   0.0000

          k =-0.3333 0.1925 0.0000 (216688 PWs)   bands (ev):

   -23.6661 -21.2009 -20.9430 -20.9161 -20.7842 -20.5684 -20.4315 -20.2283
   -20.1865 -19.9434 -19.9357 -19.7768 -19.6598 -19.6538 -19.3115 -19.2816
   -19.1498 -19.1022 -18.8460 -18.7863 -18.7080 -18.7022 -18.5833 -18.4982
   -18.4097 -18.3541 -18.3032 -18.2393 -18.2326 -18.1292 -17.9982 -17.9584
   -17.9104 -17.7937 -17.6490 -15.1278 -12.5386 -12.5190 -12.3176 -12.3151
   -12.1278 -12.0850 -11.9713 -11.9221 -11.8781 -11.7851 -11.6786 -11.5563
   -11.5085 -11.4370 -11.2541 -11.1522 -11.0655 -11.0504 -10.8971 -10.6443
   -10.4628 -10.3138 -10.2160 -10.0600  -9.9763  -9.7965  -9.6977  -9.6099
    -9.5912  -9.4213  -9.4199  -9.3379  -9.2026  -9.1514  -9.1393  -8.8243
    -8.7780  -8.6811  -8.6406  -8.5104  -8.4191  -8.3667  -8.3636  -8.3268
    -8.2598  -8.2583  -8.1629  -8.1049  -8.0619  -8.0286  -7.9873  -7.8453
    -7.7921  -7.7855  -7.7058  -7.6992  -7.6736  -7.6191  -7.5632  -7.4812
    -7.3893  -7.3813  -7.2750  -7.1657  -7.0715  -7.0260  -7.0092  -6.9601
    -6.8317  -6.8120  -6.7683  -6.7669  -6.6364  -6.5727  -6.5547  -6.5356
    -6.3304  -6.1620  -6.1329  -6.1240  -5.8844  -5.8826  -5.8226  -5.7662
    -5.6898  -5.5273  -5.4656  -5.4002  -5.3373  -5.3011  -5.2946  -5.1955
    -5.1665  -4.9095  -4.8442  -4.7655  -4.7279  -4.6634  -4.5717  -4.5213
    -4.2549  -4.2339  -4.1888  -3.9477  -3.8217  -3.0221  -1.8287   0.1877
     1.0981   1.1278   1.1958   1.2435   1.2731   1.3669   1.3835

     occupation numbers 
     1.0000   1.0000   1.0000   1.0000   1.0000   1.0000   1.0000   1.0000
     1.0000   1.0000   1.0000   1.0000   1.0000   1.0000   1.0000   1.0000
     1.0000   1.0000   1.0000   1.0000   1.0000   1.0000   1.0000   1.0000
     1.0000   1.0000   1.0000   1.0000   1.0000   1.0000   1.0000   1.0000
     1.0000   1.0000   1.0000   1.0000   1.0000   1.0000   1.0000   1.0000
     1.0000   1.0000   1.0000   1.0000   1.0000   1.0000   1.0000   1.0000
     1.0000   1.0000   1.0000   1.0000   1.0000   1.0000   1.0000   1.0000
     1.0000   1.0000   1.0000   1.0000   1.0000   1.0000   1.0000   1.0000
     1.0000   1.0000   1.0000   1.0000   1.0000   1.0000   1.0000   1.0000
     1.0000   1.0000   1.0000   1.0000   1.0000   1.0000   1.0000   1.0000
     1.0000   1.0000   1.0000   1.0000   1.0000   1.0000   1.0000   1.0000
     1.0000   1.0000   1.0000   1.0000   1.0000   1.0000   1.0000   1.0000
     1.0000   1.0000   1.0000   1.0000   1.0000   1.0000   1.0000   1.0000
     1.0000   1.0000   1.0000   1.0000   1.0000   1.0000   1.0000   1.0000
     1.0000   1.0000   1.0000   1.0000   1.0000   1.0000   1.0000   1.0000
     1.0000   1.0000   1.0000   1.0000   1.0000   1.0000   1.0000   1.0000
     1.0000   1.0000   1.0000   1.0000   1.0000   1.0000   1.0000   1.0000
     1.0000   1.0000   1.0000   1.0000   1.0000   1.0000   1.0000   0.0000
     0.0000   0.0000   0.0000   0.0000   0.0000   0.0000   0.0000

          k = 0.3333 0.1925 0.0000 (216688 PWs)   bands (ev):

   -23.6661 -21.1870 -21.0424 -20.8456 -20.7084 -20.5718 -20.4104 -20.3679
   -20.1918 -20.0094 -19.9040 -19.6916 -19.6236 -19.5619 -19.4032 -19.2624
   -19.1391 -19.0581 -18.9323 -18.8304 -18.7928 -18.6932 -18.5913 -18.4703
   -18.3854 -18.3155 -18.2794 -18.2523 -18.1510 -18.1007 -18.0535 -18.0023
   -17.8964 -17.7891 -17.6591 -15.1308 -12.5607 -12.4696 -12.3498 -12.2548
   -12.2011 -12.1582 -12.0338 -11.9292 -11.7772 -11.7032 -11.6205 -11.5449
   -11.5362 -11.3753 -11.3266 -11.2114 -11.0448 -11.0174 -10.8571 -10.6494
   -10.5334 -10.3230 -10.2239 -10.0285  -9.9557  -9.9223  -9.7657  -9.6379
    -9.5848  -9.4950  -9.4064  -9.2566  -9.1707  -9.1490  -8.9227  -8.8541
    -8.7290  -8.6814  -8.5580  -8.5055  -8.4823  -8.4345  -8.3629  -8.3090
    -8.2759  -8.2681  -8.2138  -8.1610  -8.0721  -8.0148  -7.9739  -7.8486
    -7.8282  -7.7710  -7.6829  -7.6801  -7.6327  -7.5504  -7.5066  -7.5028
    -7.4554  -7.3781  -7.3716  -7.2549  -7.1765  -7.0817  -7.0222  -6.9014
    -6.8757  -6.7649  -6.7064  -6.6350  -6.6086  -6.5630  -6.4621  -6.3771
    -6.3153  -6.2569  -6.1853  -6.1013  -6.0211  -5.8744  -5.8081  -5.7503
    -5.6397  -5.5516  -5.5194  -5.5140  -5.3956  -5.3138  -5.2826  -5.1665
    -5.1646  -4.9134  -4.8279  -4.7433  -4.6948  -4.6254  -4.5391  -4.4531
    -4.3317  -4.2523  -4.1955  -3.9351  -3.8300  -3.0095  -1.8399   0.2034
     1.1053   1.1288   1.2137   1.2563   1.2830   1.3316   1.4197

     occupation numbers 
     1.0000   1.0000   1.0000   1.0000   1.0000   1.0000   1.0000   1.0000
     1.0000   1.0000   1.0000   1.0000   1.0000   1.0000   1.0000   1.0000
     1.0000   1.0000   1.0000   1.0000   1.0000   1.0000   1.0000   1.0000
     1.0000   1.0000   1.0000   1.0000   1.0000   1.0000   1.0000   1.0000
     1.0000   1.0000   1.0000   1.0000   1.0000   1.0000   1.0000   1.0000
     1.0000   1.0000   1.0000   1.0000   1.0000   1.0000   1.0000   1.0000
     1.0000   1.0000   1.0000   1.0000   1.0000   1.0000   1.0000   1.0000
     1.0000   1.0000   1.0000   1.0000   1.0000   1.0000   1.0000   1.0000
     1.0000   1.0000   1.0000   1.0000   1.0000   1.0000   1.0000   1.0000
     1.0000   1.0000   1.0000   1.0000   1.0000   1.0000   1.0000   1.0000
     1.0000   1.0000   1.0000   1.0000   1.0000   1.0000   1.0000   1.0000
     1.0000   1.0000   1.0000   1.0000   1.0000   1.0000   1.0000   1.0000
     1.0000   1.0000   1.0000   1.0000   1.0000   1.0000   1.0000   1.0000
     1.0000   1.0000   1.0000   1.0000   1.0000   1.0000   1.0000   1.0000
     1.0000   1.0000   1.0000   1.0000   1.0000   1.0000   1.0000   1.0000
     1.0000   1.0000   1.0000   1.0000   1.0000   1.0000   1.0000   1.0000
     1.0000   1.0000   1.0000   1.0000   1.0000   1.0000   1.0000   1.0000
     1.0000   1.0000   1.0000   1.0000   1.0000   1.0000   1.0000   0.0000
     0.0000   0.0000   0.0000   0.0000   0.0000   0.0000   0.0000

 ------ SPIN DOWN ----------


          k = 0.0000 0.0000 0.0000 (216681 PWs)   bands (ev):

   -23.3251 -21.2233 -20.8485 -20.8056 -20.7202 -20.6944 -20.6905 -20.1949
   -20.0461 -19.8168 -19.7696 -19.6833 -19.6510 -19.5265 -19.4907 -19.3879
   -19.2885 -19.2850 -19.0989 -18.7249 -18.5317 -18.4206 -18.3601 -18.3421
   -18.3257 -18.3085 -18.3023 -18.2747 -18.2603 -18.2177 -18.1475 -18.1003
   -18.0771 -17.7337 -17.5891 -14.8191 -12.6185 -12.5449 -12.4010 -12.2011
   -12.0558 -11.8305 -11.8061 -11.7490 -11.7279 -11.6924 -11.6920 -11.6196
   -11.6115 -11.5597 -11.4632 -11.3659 -11.1372 -10.8263 -10.8027 -10.6839
   -10.6563 -10.5230 -10.4094 -10.2973  -9.7989  -9.7169  -9.3975  -9.2816
    -9.1498  -9.1440  -9.1393  -9.0750  -9.0496  -9.0249  -8.9930  -8.9875
    -8.9659  -8.9312  -8.9205  -8.8776  -8.8395  -8.5005  -8.4807  -8.4133
    -8.2204  -8.1923  -8.1567  -8.1316  -8.0597  -7.9812  -7.7737  -7.7482
    -7.6958  -7.6874  -7.5852  -7.5453  -7.5212  -7.5078  -7.4606  -7.4184
    -7.2723  -7.2110  -7.1979  -7.1096  -7.0436  -7.0316  -7.0041  -6.9528
    -6.8852  -6.8553  -6.8369  -6.8204  -6.7307  -6.6470  -6.3778  -6.3341
    -6.2894  -6.2583  -6.2510  -6.1870  -6.1428  -6.0591  -5.9157  -5.8802
    -5.8506  -5.8075  -5.2943  -5.2111  -5.0906  -4.9639  -4.8988  -4.8022
    -4.7661  -4.7484  -4.7466  -4.7303  -4.7259  -4.6788  -4.6769  -4.6079
    -4.6032  -4.5071  -4.5035  -3.8387  -3.6692  -2.8001  -0.8684   0.4183
     1.0445   1.0605   1.0631   1.1850   1.1914   1.4355   1.7159

     occupation numbers 
     1.0000   1.0000   1.0000   1.0000   1.0000   1.0000   1.0000   1.0000
     1.0000   1.0000   1.0000   1.0000   1.0000   1.0000   1.0000   1.0000
     1.0000   1.0000   1.0000   1.0000   1.0000   1.0000   1.0000   1.0000
     1.0000   1.0000   1.0000   1.0000   1.0000   1.0000   1.0000   1.0000
     1.0000   1.0000   1.0000   1.0000   1.0000   1.0000   1.0000   1.0000
     1.0000   1.0000   1.0000   1.0000   1.0000   1.0000   1.0000   1.0000
     1.0000   1.0000   1.0000   1.0000   1.0000   1.0000   1.0000   1.0000
     1.0000   1.0000   1.0000   1.0000   1.0000   1.0000   1.0000   1.0000
     1.0000   1.0000   1.0000   1.0000   1.0000   1.0000   1.0000   1.0000
     1.0000   1.0000   1.0000   1.0000   1.0000   1.0000   1.0000   1.0000
     1.0000   1.0000   1.0000   1.0000   1.0000   1.0000   1.0000   1.0000
     1.0000   1.0000   1.0000   1.0000   1.0000   1.0000   1.0000   1.0000
     1.0000   1.0000   1.0000   1.0000   1.0000   1.0000   1.0000   1.0000
     1.0000   1.0000   1.0000   1.0000   1.0000   1.0000   1.0000   1.0000
     1.0000   1.0000   1.0000   1.0000   1.0000   1.0000   1.0000   1.0000
     1.0000   1.0000   1.0000   1.0000   1.0000   1.0000   1.0000   1.0000
     1.0000   1.0000   1.0000   1.0000   1.0000   1.0000   1.0000   1.0000
     1.0000   1.0000   1.0000   1.0000   1.0000   1.0000   0.0000   0.0000
     0.0000   0.0000   0.0000   0.0000   0.0000   0.0000   0.0000

          k = 0.0000 0.3849 0.0000 (216688 PWs)   bands (ev):

   -23.3251 -21.1816 -21.0353 -20.8357 -20.6947 -20.5587 -20.4046 -20.3385
   -20.1846 -19.9993 -19.8813 -19.6833 -19.6187 -19.5507 -19.3919 -19.2571
   -19.1291 -19.0479 -18.9234 -18.8251 -18.7896 -18.6910 -18.5881 -18.4640
   -18.3785 -18.3135 -18.2779 -18.2498 -18.1491 -18.0986 -18.0514 -18.0009
   -17.8952 -17.7872 -17.6573 -14.8192 -12.5343 -12.4346 -12.3378 -12.2396
   -12.1924 -12.1504 -12.0275 -11.9137 -11.7672 -11.6987 -11.6132 -11.5388
   -11.5272 -11.3689 -11.3185 -11.2035 -11.0350 -11.0097 -10.8486 -10.6371
   -10.5189 -10.3145 -10.2079 -10.0187  -9.9460  -9.9106  -9.7577  -9.6320
    -9.5766  -9.4883  -9.3987  -9.2488  -9.1654  -8.9167  -8.8736  -8.8426
    -8.7133  -8.6130  -8.5501  -8.4990  -8.4241  -8.4178  -8.3590  -8.3059
    -8.2704  -8.2378  -8.2100  -8.1575  -8.0684  -7.9680  -7.9470  -7.8214
    -7.8137  -7.7674  -7.6772  -7.6365  -7.6272  -7.5454  -7.5039  -7.4579
    -7.4523  -7.3690  -7.3451  -7.2500  -7.1676  -7.0199  -7.0143  -6.8938
    -6.8178  -6.7557  -6.6909  -6.6281  -6.5863  -6.5541  -6.4250  -6.3735
    -6.3108  -6.2101  -6.1744  -6.0787  -6.0173  -5.8380  -5.8028  -5.7096
    -5.6142  -5.4934  -5.4899  -5.4805  -5.3786  -5.2947  -5.2323  -5.1449
    -5.1144  -4.8743  -4.7858  -4.7342  -4.6855  -4.6132  -4.5335  -4.4196
    -4.3148  -4.2451  -4.1836  -3.9242  -3.8128  -2.8093  -0.8701   0.4324
     1.1306   1.1574   1.1590   1.2391   1.2717   1.3034   1.3497

     occupation numbers 
     1.0000   1.0000   1.0000   1.0000   1.0000   1.0000   1.0000   1.0000
     1.0000   1.0000   1.0000   1.0000   1.0000   1.0000   1.0000   1.0000
     1.0000   1.0000   1.0000   1.0000   1.0000   1.0000   1.0000   1.0000
     1.0000   1.0000   1.0000   1.0000   1.0000   1.0000   1.0000   1.0000
     1.0000   1.0000   1.0000   1.0000   1.0000   1.0000   1.0000   1.0000
     1.0000   1.0000   1.0000   1.0000   1.0000   1.0000   1.0000   1.0000
     1.0000   1.0000   1.0000   1.0000   1.0000   1.0000   1.0000   1.0000
     1.0000   1.0000   1.0000   1.0000   1.0000   1.0000   1.0000   1.0000
     1.0000   1.0000   1.0000   1.0000   1.0000   1.0000   1.0000   1.0000
     1.0000   1.0000   1.0000   1.0000   1.0000   1.0000   1.0000   1.0000
     1.0000   1.0000   1.0000   1.0000   1.0000   1.0000   1.0000   1.0000
     1.0000   1.0000   1.0000   1.0000   1.0000   1.0000   1.0000   1.0000
     1.0000   1.0000   1.0000   1.0000   1.0000   1.0000   1.0000   1.0000
     1.0000   1.0000   1.0000   1.0000   1.0000   1.0000   1.0000   1.0000
     1.0000   1.0000   1.0000   1.0000   1.0000   1.0000   1.0000   1.0000
     1.0000   1.0000   1.0000   1.0000   1.0000   1.0000   1.0000   1.0000
     1.0000   1.0000   1.0000   1.0000   1.0000   1.0000   1.0000   1.0000
     1.0000   1.0000   1.0000   1.0000   1.0000   1.0000   0.0000   0.0000
     0.0000   0.0000   0.0000   0.0000   0.0000   0.0000   0.0000

          k = 0.3333 0.5774 0.0000 (216546 PWs)   bands (ev):

   -23.3251 -21.1418 -21.0915 -20.8754 -20.6500 -20.5416 -20.3584 -20.2567
   -20.1323 -20.0584 -20.0423 -19.9304 -19.5138 -19.4468 -19.2539 -19.1888
   -19.1548 -19.0170 -18.9097 -18.8684 -18.7213 -18.6782 -18.6206 -18.5774
   -18.5100 -18.4796 -18.2625 -18.1977 -18.1163 -18.0066 -17.9838 -17.9529
   -17.9004 -17.7936 -17.6996 -14.8181 -12.5089 -12.4533 -12.3028 -12.2461
   -12.1333 -12.0338 -11.9935 -11.9463 -11.8914 -11.8358 -11.7894 -11.6942
   -11.5532 -11.5172 -11.2483 -10.9718 -10.7847 -10.6836 -10.5589 -10.5355
   -10.5194 -10.4122 -10.3649 -10.1747 -10.1496 -10.0841  -9.9535  -9.7827
    -9.7218  -9.3495  -9.1883  -9.0054  -8.9231  -8.9012  -8.8342  -8.8324
    -8.7412  -8.7288  -8.6230  -8.6116  -8.5705  -8.5669  -8.3608  -8.3340
    -8.2108  -8.1003  -8.0798  -7.9867  -7.9348  -7.9332  -7.8983  -7.8672
    -7.8323  -7.8192  -7.7933  -7.7535  -7.6613  -7.6431  -7.4835  -7.4735
    -7.3933  -7.3279  -7.2812  -7.2265  -7.1702  -7.1504  -7.1012  -7.0067
    -6.9584  -6.8266  -6.7540  -6.6818  -6.5103  -6.4430  -6.2879  -6.2360
    -6.1095  -6.0835  -6.0451  -5.9938  -5.9786  -5.9326  -5.8726  -5.7873
    -5.5509  -5.5343  -5.5083  -5.4805  -5.3412  -5.3394  -5.1671  -5.1449
    -5.1164  -5.1033  -5.0311  -5.0309  -4.7022  -4.4496  -4.4186  -4.2819
    -4.2266  -4.1894  -4.0681  -3.9779  -3.9465  -2.8196  -0.8638   0.4199
     1.1133   1.1555   1.1609   1.2141   1.2510   1.3232   1.4261

     occupation numbers 
     1.0000   1.0000   1.0000   1.0000   1.0000   1.0000   1.0000   1.0000
     1.0000   1.0000   1.0000   1.0000   1.0000   1.0000   1.0000   1.0000
     1.0000   1.0000   1.0000   1.0000   1.0000   1.0000   1.0000   1.0000
     1.0000   1.0000   1.0000   1.0000   1.0000   1.0000   1.0000   1.0000
     1.0000   1.0000   1.0000   1.0000   1.0000   1.0000   1.0000   1.0000
     1.0000   1.0000   1.0000   1.0000   1.0000   1.0000   1.0000   1.0000
     1.0000   1.0000   1.0000   1.0000   1.0000   1.0000   1.0000   1.0000
     1.0000   1.0000   1.0000   1.0000   1.0000   1.0000   1.0000   1.0000
     1.0000   1.0000   1.0000   1.0000   1.0000   1.0000   1.0000   1.0000
     1.0000   1.0000   1.0000   1.0000   1.0000   1.0000   1.0000   1.0000
     1.0000   1.0000   1.0000   1.0000   1.0000   1.0000   1.0000   1.0000
     1.0000   1.0000   1.0000   1.0000   1.0000   1.0000   1.0000   1.0000
     1.0000   1.0000   1.0000   1.0000   1.0000   1.0000   1.0000   1.0000
     1.0000   1.0000   1.0000   1.0000   1.0000   1.0000   1.0000   1.0000
     1.0000   1.0000   1.0000   1.0000   1.0000   1.0000   1.0000   1.0000
     1.0000   1.0000   1.0000   1.0000   1.0000   1.0000   1.0000   1.0000
     1.0000   1.0000   1.0000   1.0000   1.0000   1.0000   1.0000   1.0000
     1.0000   1.0000   1.0000   1.0000   1.0000   1.0000   0.0000   0.0000
     0.0000   0.0000   0.0000   0.0000   0.0000   0.0000   0.0000

          k =-0.3333 0.1925 0.0000 (216688 PWs)   bands (ev):

   -23.3251 -21.1959 -20.9405 -20.9000 -20.7734 -20.5464 -20.4268 -20.2084
   -20.1785 -19.9369 -19.9025 -19.7691 -19.6513 -19.6487 -19.2998 -19.2747
   -19.1386 -19.0979 -18.8406 -18.7794 -18.7054 -18.6983 -18.5790 -18.4895
   -18.4042 -18.3524 -18.3021 -18.2376 -18.2316 -18.1233 -17.9958 -17.9577
   -17.9093 -17.7918 -17.6476 -14.8165 -12.5117 -12.4904 -12.3072 -12.2890
   -12.1216 -12.0815 -11.9646 -11.9007 -11.8717 -11.7781 -11.6735 -11.5507
   -11.5005 -11.4296 -11.2452 -11.1461 -11.0536 -11.0380 -10.8891 -10.6364
   -10.4522 -10.3008 -10.2015 -10.0492  -9.9656  -9.7920  -9.6926  -9.6015
    -9.5787  -9.4146  -9.4100  -9.3294  -9.1952  -9.1327  -8.8840  -8.8104
    -8.7714  -8.6269  -8.5823  -8.5033  -8.3825  -8.3625  -8.3578  -8.3098
    -8.2561  -8.2546  -8.1566  -8.1015  -8.0249  -7.9824  -7.9470  -7.8240
    -7.7865  -7.7781  -7.6968  -7.6703  -7.6672  -7.6156  -7.5583  -7.4783
    -7.3708  -7.3357  -7.2711  -7.1592  -7.0677  -7.0015  -6.9704  -6.9592
    -6.7897  -6.7792  -6.7599  -6.7514  -6.5855  -6.5517  -6.5367  -6.5203
    -6.3286  -6.1110  -6.1104  -6.1050  -5.8791  -5.8368  -5.7864  -5.7636
    -5.6850  -5.4969  -5.4132  -5.3842  -5.3297  -5.2990  -5.2662  -5.1448
    -5.1105  -4.8467  -4.8188  -4.7474  -4.7123  -4.6581  -4.5644  -4.4745
    -4.2388  -4.2272  -4.1786  -3.9354  -3.8079  -2.8206  -0.8593   0.4133
     1.1333   1.1482   1.2201   1.2611   1.2863   1.3859   1.4223

     occupation numbers 
     1.0000   1.0000   1.0000   1.0000   1.0000   1.0000   1.0000   1.0000
     1.0000   1.0000   1.0000   1.0000   1.0000   1.0000   1.0000   1.0000
     1.0000   1.0000   1.0000   1.0000   1.0000   1.0000   1.0000   1.0000
     1.0000   1.0000   1.0000   1.0000   1.0000   1.0000   1.0000   1.0000
     1.0000   1.0000   1.0000   1.0000   1.0000   1.0000   1.0000   1.0000
     1.0000   1.0000   1.0000   1.0000   1.0000   1.0000   1.0000   1.0000
     1.0000   1.0000   1.0000   1.0000   1.0000   1.0000   1.0000   1.0000
     1.0000   1.0000   1.0000   1.0000   1.0000   1.0000   1.0000   1.0000
     1.0000   1.0000   1.0000   1.0000   1.0000   1.0000   1.0000   1.0000
     1.0000   1.0000   1.0000   1.0000   1.0000   1.0000   1.0000   1.0000
     1.0000   1.0000   1.0000   1.0000   1.0000   1.0000   1.0000   1.0000
     1.0000   1.0000   1.0000   1.0000   1.0000   1.0000   1.0000   1.0000
     1.0000   1.0000   1.0000   1.0000   1.0000   1.0000   1.0000   1.0000
     1.0000   1.0000   1.0000   1.0000   1.0000   1.0000   1.0000   1.0000
     1.0000   1.0000   1.0000   1.0000   1.0000   1.0000   1.0000   1.0000
     1.0000   1.0000   1.0000   1.0000   1.0000   1.0000   1.0000   1.0000
     1.0000   1.0000   1.0000   1.0000   1.0000   1.0000   1.0000   1.0000
     1.0000   1.0000   1.0000   1.0000   1.0000   1.0000   0.0000   0.0000
     0.0000   0.0000   0.0000   0.0000   0.0000   0.0000   0.0000

          k = 0.3333 0.1925 0.0000 (216688 PWs)   bands (ev):

   -23.3251 -21.1815 -21.0355 -20.8357 -20.6944 -20.5586 -20.4049 -20.3385
   -20.1846 -19.9995 -19.8815 -19.6832 -19.6185 -19.5504 -19.3920 -19.2572
   -19.1291 -19.0479 -18.9235 -18.8252 -18.7897 -18.6910 -18.5877 -18.4641
   -18.3785 -18.3130 -18.2783 -18.2500 -18.1489 -18.0988 -18.0514 -18.0010
   -17.8952 -17.7873 -17.6573 -14.8192 -12.5340 -12.4353 -12.3377 -12.2396
   -12.1923 -12.1503 -12.0277 -11.9136 -11.7671 -11.6981 -11.6132 -11.5383
   -11.5274 -11.3695 -11.3188 -11.2036 -11.0349 -11.0096 -10.8486 -10.6374
   -10.5196 -10.3139 -10.2078 -10.0186  -9.9456  -9.9105  -9.7575  -9.6321
    -9.5761  -9.4889  -9.3989  -9.2482  -9.1656  -8.9171  -8.8736  -8.8426
    -8.7137  -8.6130  -8.5501  -8.4986  -8.4255  -8.4181  -8.3591  -8.3048
    -8.2704  -8.2374  -8.2098  -8.1575  -8.0678  -7.9682  -7.9470  -7.8219
    -7.8136  -7.7668  -7.6776  -7.6368  -7.6273  -7.5453  -7.5040  -7.4581
    -7.4522  -7.3690  -7.3451  -7.2487  -7.1682  -7.0200  -7.0136  -6.8936
    -6.8178  -6.7565  -6.6906  -6.6288  -6.5862  -6.5540  -6.4248  -6.3740
    -6.3109  -6.2103  -6.1752  -6.0789  -6.0158  -5.8379  -5.8021  -5.7096
    -5.6151  -5.4936  -5.4889  -5.4810  -5.3788  -5.2948  -5.2333  -5.1446
    -5.1141  -4.8746  -4.7856  -4.7332  -4.6855  -4.6128  -4.5333  -4.4205
    -4.3150  -4.2450  -4.1836  -3.9243  -3.8127  -2.8093  -0.8701   0.4325
     1.1309   1.1573   1.1590   1.2387   1.2711   1.3041   1.3509

     occupation numbers 
     1.0000   1.0000   1.0000   1.0000   1.0000   1.0000   1.0000   1.0000
     1.0000   1.0000   1.0000   1.0000   1.0000   1.0000   1.0000   1.0000
     1.0000   1.0000   1.0000   1.0000   1.0000   1.0000   1.0000   1.0000
     1.0000   1.0000   1.0000   1.0000   1.0000   1.0000   1.0000   1.0000
     1.0000   1.0000   1.0000   1.0000   1.0000   1.0000   1.0000   1.0000
     1.0000   1.0000   1.0000   1.0000   1.0000   1.0000   1.0000   1.0000
     1.0000   1.0000   1.0000   1.0000   1.0000   1.0000   1.0000   1.0000
     1.0000   1.0000   1.0000   1.0000   1.0000   1.0000   1.0000   1.0000
     1.0000   1.0000   1.0000   1.0000   1.0000   1.0000   1.0000   1.0000
     1.0000   1.0000   1.0000   1.0000   1.0000   1.0000   1.0000   1.0000
     1.0000   1.0000   1.0000   1.0000   1.0000   1.0000   1.0000   1.0000
     1.0000   1.0000   1.0000   1.0000   1.0000   1.0000   1.0000   1.0000
     1.0000   1.0000   1.0000   1.0000   1.0000   1.0000   1.0000   1.0000
     1.0000   1.0000   1.0000   1.0000   1.0000   1.0000   1.0000   1.0000
     1.0000   1.0000   1.0000   1.0000   1.0000   1.0000   1.0000   1.0000
     1.0000   1.0000   1.0000   1.0000   1.0000   1.0000   1.0000   1.0000
     1.0000   1.0000   1.0000   1.0000   1.0000   1.0000   1.0000   1.0000
     1.0000   1.0000   1.0000   1.0000   1.0000   1.0000   0.0000   0.0000
     0.0000   0.0000   0.0000   0.0000   0.0000   0.0000   0.0000

     the Fermi energy is    -1.4364 ev

!    total energy              =    -958.74664119 Ry
     Harris-Foulkes estimate   =    -958.74664119 Ry
     estimated scf accuracy    <          2.7E-09 Ry

     The total energy is the sum of the following terms:

     one-electron contribution =   -5888.70978765 Ry
     hartree contribution      =    3005.83676883 Ry
     xc contribution           =    -308.38890243 Ry
     ewald contribution        =    2232.51528005 Ry
     smearing contrib. (-TS)   =       0.00000000 Ry

     total magnetization       =     1.00 Bohr mag/cell
     absolute magnetization    =     1.11 Bohr mag/cell

     convergence has been achieved in  16 iterations

     Writing output data file bn.save
 
     init_run     :      8.59s CPU      9.67s WALL (       1 calls)
     electrons    :    219.36s CPU    222.87s WALL (       1 calls)

     Called by init_run:
     wfcinit      :      5.40s CPU      5.95s WALL (       1 calls)
     wfcinit:atom :      0.04s CPU      0.06s WALL (       2 calls)
     wfcinit:wfcr :      5.15s CPU      5.64s WALL (       2 calls)
     potinit      :      0.87s CPU      0.89s WALL (       1 calls)

     Called by electrons:
     c_bands      :    190.39s CPU    193.51s WALL (      16 calls)
     sum_band     :     22.29s CPU     22.39s WALL (      16 calls)
     v_of_rho     :      4.16s CPU      4.20s WALL (      17 calls)
     v_h          :      0.17s CPU      0.17s WALL (      17 calls)
     v_xc         :      3.99s CPU      4.02s WALL (      17 calls)
     mix_rho      :      1.76s CPU      1.81s WALL (      16 calls)

     Called by c_bands:
     init_us_2    :      2.65s CPU      2.68s WALL (      66 calls)
     cegterg      :    168.96s CPU    171.51s WALL (      32 calls)

     Called by sum_band:

     Called by *egterg:
     h_psi        :    121.82s CPU    122.43s WALL (     189 calls)
     g_psi        :      0.59s CPU      0.60s WALL (     155 calls)
     cdiaghg      :      9.60s CPU     10.25s WALL (     187 calls)
     cegterg:over :     15.50s CPU     15.62s WALL (     155 calls)
     cegterg:upda :     16.98s CPU     17.02s WALL (     155 calls)
     cegterg:last :      4.58s CPU      4.59s WALL (      32 calls)
     cdiaghg:chol :      0.73s CPU      1.02s WALL (     187 calls)
     cdiaghg:inve :      0.55s CPU      0.55s WALL (     187 calls)
     cdiaghg:para :      0.77s CPU      0.88s WALL (     374 calls)

     Called by h_psi:
     h_psi:pot    :    119.90s CPU    120.49s WALL (     189 calls)
     h_psi:calbec :     16.65s CPU     16.84s WALL (     189 calls)
     vloc_psi     :     86.85s CPU     87.21s WALL (     189 calls)
     add_vuspsi   :     16.39s CPU     16.44s WALL (     189 calls)

     General routines
     calbec       :     16.65s CPU     16.84s WALL (     189 calls)
     fft          :      2.31s CPU      2.78s WALL (     355 calls)
     fftw         :     80.29s CPU     80.62s WALL (   35048 calls)
 
     Parallel routines
     fft_scatter  :     37.54s CPU     37.72s WALL (   35403 calls)
 
     PWSCF        :  4m 5.73s CPU     4m16.51s WALL

 
   This run was terminated on:  14:28: 0   5May2019            

=------------------------------------------------------------------------------=
   JOB DONE.
=------------------------------------------------------------------------------=
