
                                 *****************
                                 * O   R   C   A *
                                 *****************

           --- An Ab Initio, DFT and Semiempirical electronic structure package ---

                  #######################################################
                  #                        -***-                        #
                  #          Department of theory and spectroscopy      #
                  #               Directorship: Frank Neese             #
                  #        Max Planck Institute fuer Kohlenforschung    #
                  #                Kaiser Wilhelm Platz 1               #
                  #                 D-45470 Muelheim/Ruhr               #
                  #                      Germany                        #
                  #                                                     #
                  #                  All rights reserved                #
                  #                        -***-                        #
                  #######################################################


                         Program Version 4.2.1 -  RELEASE  -


 With contributions from (in alphabetic order):
   Daniel Aravena         : Magnetic Suceptibility
   Michael Atanasov       : Ab Initio Ligand Field Theory (pilot matlab implementation)
   Alexander A. Auer      : GIAO ZORA, VPT2
   Ute Becker             : Parallelization
   Giovanni Bistoni       : ED, misc. LED, open-shell LED, HFLD
   Martin Brehm           : Molecular dynamics
   Dmytro Bykov           : SCF Hessian
   Vijay G. Chilkuri      : MRCI spin determinant printing, contributions to CSF-ICE
   Dipayan Datta          : RHF DLPNO-CCSD density
   Achintya Kumar Dutta   : EOM-CC, STEOM-CC
   Dmitry Ganyushin       : Spin-Orbit,Spin-Spin,Magnetic field MRCI
   Miquel Garcia          : C-PCM Hessian, Gaussian charge scheme
   Yang Guo               : DLPNO-NEVPT2, CIM, IAO-localization
   Andreas Hansen         : Spin unrestricted coupled pair/coupled cluster methods
   Benjamin Helmich-Paris : CASSCF linear response (MC-RPA)
   Lee Huntington         : MR-EOM, pCC
   Robert Izsak           : Overlap fitted RIJCOSX, COSX-SCS-MP3, EOM
   Christian Kollmar      : KDIIS, OOCD, Brueckner-CCSD(T), CCSD density
   Simone Kossmann        : Meta GGA functionals, TD-DFT gradient, OOMP2, MP2 Hessian
   Martin Krupicka        : AUTO-CI
   Lucas Lang             : DCDCAS
   Dagmar Lenk            : GEPOL surface, SMD
   Dimitrios Liakos       : Extrapolation schemes; Compound Job, initial MDCI parallelization
   Dimitrios Manganas     : Further ROCIS development; embedding schemes
   Dimitrios Pantazis     : SARC Basis sets
   Taras Petrenko         : DFT Hessian,TD-DFT gradient, ASA, ECA, R-Raman, ABS, FL, XAS/XES, NRVS
   Peter Pinski           : DLPNO-MP2, DLPNO-MP2 Gradient
   Christoph Reimann      : Effective Core Potentials
   Marius Retegan         : Local ZFS, SOC
   Christoph Riplinger    : Optimizer, TS searches, QM/MM, DLPNO-CCSD(T), (RO)-DLPNO pert. Triples
   Tobias Risthaus        : Range-separated hybrids, TD-DFT gradient, RPA, STAB
   Michael Roemelt        : Original ROCIS implementation
   Masaaki Saitow         : Open-shell DLPNO-CCSD energy and density
   Barbara Sandhoefer     : DKH picture change effects
   Avijit Sen             : IP-ROCIS
   Kantharuban Sivalingam : CASSCF convergence, NEVPT2, FIC-MRCI
   Bernardo de Souza      : ESD, SOC TD-DFT
   Georgi Stoychev        : AutoAux, RI-MP2 NMR
   Willem Van den Heuvel  : Paramagnetic NMR
   Boris Wezisla          : Elementary symmetry handling
   Frank Wennmohs         : Technical directorship


 We gratefully acknowledge several colleagues who have allowed us to
 interface, adapt or use parts of their codes:
   Stefan Grimme, W. Hujo, H. Kruse,             : VdW corrections, initial TS optimization,
                  C. Bannwarth                     DFT functionals, gCP, sTDA/sTD-DF
   Ed Valeev, F. Pavosevic, A. Kumar             : LibInt (2-el integral package), F12 methods
   Garnet Chan, S. Sharma, J. Yang, R. Olivares  : DMRG
   Ulf Ekstrom                                   : XCFun DFT Library
   Mihaly Kallay                                 : mrcc  (arbitrary order and MRCC methods)
   Andreas Klamt, Michael Diedenhofen            : otool_cosmo (COSMO solvation model)
   Jiri Pittner, Ondrej Demel                    : Mk-CCSD
   Frank Weinhold                                : gennbo (NPA and NBO analysis)
   Christopher J. Cramer and Donald G. Truhlar   : smd solvation model
   Lars Goerigk                                  : TD-DFT with DH, B97 family of functionals
   V. Asgeirsson, H. Jonsson                     : NEB implementation
   FAccTs GmbH                                   : IRC, NEB, NEB-TS, Multilevel, MM, QM/MM, CI optimization
   S Lehtola, MJT Oliveira, MAL Marques          : LibXC Library


 Your calculation uses the libint2 library for the computation of 2-el integrals
 For citations please refer to: http://libint.valeyev.net

 Your ORCA version has been built with support for libXC version: 4.2.3
 For citations please refer to: https://tddft.org/programs/libxc/

 This ORCA versions uses:
   CBLAS   interface :  Fast vector & matrix operations
   LAPACKE interface :  Fast linear algebra routines
   SCALAPACK package :  Parallel linear algebra routines




***************************************
The coordinates will be read from file: nv.xyz
***************************************


----- Orbital basis set information -----
Your calculation utilizes the basis: EPR-II
   V. Barone, in Recent Advances in Density Functional Methods, Part 1 (ed. D. P. Chong), World Scientific, Singapore, 1995, p. 287.

----- AuxJ basis set information -----
Your calculation utilizes the AutoAux generation procedure.
  G. L. Stoychev, A. A. Auer, F. Neese, J. Chem. Theory Comput. 13, 554 (2017)

----- AuxC basis set information -----
Your calculation utilizes the AutoAux generation procedure.
  G. L. Stoychev, A. A. Auer, F. Neese, J. Chem. Theory Comput. 13, 554 (2017)

----- AuxJK basis set information -----
Your calculation utilizes the AutoAux generation procedure.
  G. L. Stoychev, A. A. Auer, F. Neese, J. Chem. Theory Comput. 13, 554 (2017)

================================================================================
                                        WARNINGS
                       Please study these warnings very carefully!
================================================================================


WARNING: your system is open-shell and RHF/RKS was chosen
  ===> : WILL SWITCH to UHF/UKS


INFO   : the flag for use of LIBINT has been found!

================================================================================
                                       INPUT FILE
================================================================================
NAME = zfs.in
|  1> # Use EPR-II is a special basis set for epr, autoaux creates a large auxiliary basis
|  2> !PBE EPR-II AUTOAUX RIJCOSX
|  3> 
|  4> # use original (unoptimized) cluster xyz
|  5> *xyzfile -1 3 nv.xyz
|  6> 
|  7> # Parallelization
|  8> %PAL NPROCS 72 END
|  9> 
| 10> # ZFS calculation
| 11> %EPRNMR DTENSOR SSANDSO
| 12>     DSS     UNO
| 13>     DSOC    CP
| 14> END
| 15> 
| 16>                          ****END OF INPUT****
================================================================================

                       ****************************
                       * Single Point Calculation *
                       ****************************

---------------------------------
CARTESIAN COORDINATES (ANGSTROEM)
---------------------------------
  C     -0.635380    1.402386   -2.249811
  C      0.847823    1.183242   -4.258023
  C     -2.889459    0.284694   -2.199697
  C      1.198184   -2.644597   -2.199804
  C      1.691203    2.360048   -2.199700
  C     -2.275449   -1.038894   -0.144983
  C      2.281433    1.025685   -0.144986
  C     -0.252451   -2.488618   -0.145035
  C      0.238009    2.490047   -0.144933
  C     -2.028987    1.462942   -0.144931
  C      2.037435   -1.451143   -0.145037
  C      0.828242    1.155744    0.395617
  C      0.586797   -1.295159    0.395566
  C     -1.415026    0.139390    0.395618
  C     -0.850013   -1.186000   -3.737621
  C     -0.602233    1.329221   -3.737569
  C      1.452123   -0.142975   -3.737623
  C     -2.275004   -1.037876   -1.693673
  C      2.280371    1.026021   -1.693676
  C     -0.251684   -2.487830   -1.693726
  C      0.238613    2.489188   -1.693623
  C     -2.028743    1.461920   -1.693621
  C      2.036334   -1.451201   -1.693727
  C     -0.896806   -1.251352   -2.249865
  C      1.532112   -0.150886   -2.249867
  C     -1.448620    0.142796   -4.258021
  C      0.600656   -1.325759   -4.258075
  N      0.000000    0.000000    0.000000
  H      1.436783    2.005085   -3.907906
  H      0.843636    1.177438   -5.328003
  H     -2.906941    0.286439   -3.269544
  H     -3.889866    0.383240   -1.833101
  H      1.612044   -3.558055   -1.826663
  H      1.208311   -2.666953   -3.269519
  H      1.701416    2.374340   -3.269548
  H      2.276762    3.177144   -1.833106
  H     -1.868900   -1.963732    0.207581
  H     -3.280760   -0.924284    0.203028
  H      2.864522    1.850564    0.207839
  H      2.701239    0.104963    0.202756
  H      0.170384   -3.406036    0.207753
  H     -1.259710   -2.391827    0.202744
  H     -0.766186    2.600376    0.207668
  H      0.839932    3.303357    0.203076
  H     -3.034899    1.555458    0.207895
  H     -1.441522    2.286851    0.202848
  H      2.635093   -0.636658    0.207562
  H      2.440835   -2.379087    0.202936
  H      0.835530    1.165874    1.465539
  H      0.591965   -1.306562    1.465488
  H     -1.427446    0.140591    1.465541
  H     -1.435378   -2.002825   -4.105093
  H     -1.016956    2.244582   -4.105005
  H      2.452198   -0.241487   -4.105096
  H     -2.870780   -1.856546   -2.039696
  H      3.288699    0.934120   -2.039701
  H     -0.835448   -3.315108   -2.039749
  H     -0.172500    3.414489   -2.039611
  H     -2.453318    2.381122   -2.039609
  H      3.043213   -1.557809   -2.039752
  H     -1.441725    0.142139   -5.328007
  H     -2.454772    0.241908   -3.907684
  H      1.017926   -2.246742   -3.907994
  H      0.597686   -1.319205   -5.328055

----------------------------
CARTESIAN COORDINATES (A.U.)
----------------------------
  NO LB      ZA    FRAG     MASS         X           Y           Z
   0 C     6.0000    0    12.011   -1.200695    2.650125   -4.251526
   1 C     6.0000    0    12.011    1.602154    2.236003   -8.046497
   2 C     6.0000    0    12.011   -5.460286    0.537994   -4.156825
   3 C     6.0000    0    12.011    2.264239   -4.997565   -4.157026
   4 C     6.0000    0    12.011    3.195910    4.459843   -4.156831
   5 C     6.0000    0    12.011   -4.299975   -1.963226   -0.273977
   6 C     6.0000    0    12.011    4.311284    1.938263   -0.273984
   7 C     6.0000    0    12.011   -0.477063   -4.702806   -0.274077
   8 C     6.0000    0    12.011    0.449771    4.705506   -0.273883
   9 C     6.0000    0    12.011   -3.834230    2.764561   -0.273880
  10 C     6.0000    0    12.011    3.850195   -2.742262   -0.274081
  11 C     6.0000    0    12.011    1.565150    2.184039    0.747607
  12 C     6.0000    0    12.011    1.108886   -2.447497    0.747512
  13 C     6.0000    0    12.011   -2.674012    0.263409    0.747611
  14 C     6.0000    0    12.011   -1.606292   -2.241216   -7.063080
  15 C     6.0000    0    12.011   -1.138056    2.511863   -7.062982
  16 C     6.0000    0    12.011    2.744116   -0.270183   -7.063084
  17 C     6.0000    0    12.011   -4.299134   -1.961301   -3.200578
  18 C     6.0000    0    12.011    4.309277    1.938898   -3.200585
  19 C     6.0000    0    12.011   -0.475614   -4.701317   -3.200678
  20 C     6.0000    0    12.011    0.450914    4.703883   -3.200484
  21 C     6.0000    0    12.011   -3.833768    2.762629   -3.200481
  22 C     6.0000    0    12.011    3.848114   -2.742372   -3.200681
  23 C     6.0000    0    12.011   -1.694718   -2.364713   -4.251629
  24 C     6.0000    0    12.011    2.895273   -0.285133   -4.251633
  25 C     6.0000    0    12.011   -2.737494    0.269846   -8.046494
  26 C     6.0000    0    12.011    1.135075   -2.505321   -8.046595
  27 N     7.0000    0    14.007    0.000000    0.000000    0.000000
  28 H     1.0000    0     1.008    2.715126    3.789061   -7.384872
  29 H     1.0000    0     1.008    1.594241    2.225036  -10.068467
  30 H     1.0000    0     1.008   -5.493322    0.541291   -6.178543
  31 H     1.0000    0     1.008   -7.350782    0.724218   -3.464060
  32 H     1.0000    0     1.008    3.046321   -6.723749   -3.451893
  33 H     1.0000    0     1.008    2.283377   -5.039810   -6.178495
  34 H     1.0000    0     1.008    3.215211    4.486852   -6.178550
  35 H     1.0000    0     1.008    4.302456    6.003933   -3.464069
  36 H     1.0000    0     1.008   -3.531710   -3.710915    0.392271
  37 H     1.0000    0     1.008   -6.199737   -1.746643    0.383668
  38 H     1.0000    0     1.008    5.413162    3.497059    0.392758
  39 H     1.0000    0     1.008    5.104602    0.198352    0.383154
  40 H     1.0000    0     1.008    0.321979   -6.436474    0.392597
  41 H     1.0000    0     1.008   -2.380508   -4.519898    0.383131
  42 H     1.0000    0     1.008   -1.447881    4.913999    0.392436
  43 H     1.0000    0     1.008    1.587241    6.242441    0.383759
  44 H     1.0000    0     1.008   -5.735128    2.939389    0.392864
  45 H     1.0000    0     1.008   -2.724082    4.321521    0.383326
  46 H     1.0000    0     1.008    4.979604   -1.203110    0.392235
  47 H     1.0000    0     1.008    4.612509   -4.495823    0.383494
  48 H     1.0000    0     1.008    1.578923    2.203183    2.769468
  49 H     1.0000    0     1.008    1.118651   -2.469044    2.769372
  50 H     1.0000    0     1.008   -2.697483    0.265679    2.769471
  51 H     1.0000    0     1.008   -2.712470   -3.784791   -7.757501
  52 H     1.0000    0     1.008   -1.921768    4.241646   -7.757336
  53 H     1.0000    0     1.008    4.633983   -0.456345   -7.757507
  54 H     1.0000    0     1.008   -5.424988   -3.508363   -3.854467
  55 H     1.0000    0     1.008    6.214740    1.765231   -3.854476
  56 H     1.0000    0     1.008   -1.578768   -6.264646   -3.854568
  57 H     1.0000    0     1.008   -0.325978    6.452449   -3.854305
  58 H     1.0000    0     1.008   -4.636099    4.499669   -3.854302
  59 H     1.0000    0     1.008    5.750839   -2.943832   -3.854573
  60 H     1.0000    0     1.008   -2.724465    0.268604  -10.068475
  61 H     1.0000    0     1.008   -4.638848    0.457139   -7.384452
  62 H     1.0000    0     1.008    1.923601   -4.245727   -7.385038
  63 H     1.0000    0     1.008    1.129462   -2.492937  -10.068564

--------------------------------
INTERNAL COORDINATES (ANGSTROEM)
--------------------------------
 C      0   0   0     0.000000000000     0.00000000     0.00000000
 C      1   0   0     2.506159188971     0.00000000     0.00000000
 C      1   2   0     2.516468737158   120.47980034     0.00000000
 C      2   1   3     4.360203420778    75.28951498   283.77948099
 C      1   2   3     2.516468891903    60.13666438   174.71907254
 C      3   1   2     2.520068779286    91.79194712   121.28833101
 C      5   1   2     2.520068762358    91.79201994   236.05607763
 C      6   3   1     2.488818368421   120.26272267   304.19020213
 C      7   5   1     2.513948947802    60.08027955   306.41229828
 C      9   7   5     2.488817352152   120.00002881   109.82545098
 C      7   5   1     2.488816777547   120.26270158    55.80983235
 C      7   5   1     1.555934701944    91.16206226   325.68709314
 C      8   6   3     1.555934052109    89.52038815    91.06561730
 C      6   3   1     1.555934061230    91.16212214    34.31292441
 C      3   1   2     2.947455098704    65.88562639    32.41919376
 C      1   2   3     1.489925410449    35.15414078   323.08151360
 C      2   1   3     1.547529029805    92.09616882   273.73521376
 C      3   1   2     1.543634496745    91.74891424    85.78589529
 C      5   1   2     1.543634474668    91.74900365   271.55851522
 C      4   2   1     1.543634426425    89.43441787    30.89183769
 C      1   2   3     1.501448811163    90.89532350   191.81515948
 C      1   2   3     1.501449344962   148.15946933   329.09681936
 C      4   2   1     1.543633746453    61.29331666   278.87882690
 C     15   3   1     1.489925437920    58.60967734    79.25168918
 C     17   2   1     1.489925476655   111.18022714   326.95804091
 C     16   1   2     1.547528289993   111.18021291   121.75553491
 C     17   2   1     1.547528292886   109.09004221    89.92306830
 N     12   7   5     1.475886138824   111.44049751    93.52608410
 H      2   1   3     1.069990717189    89.79352599   164.26253071
 H      2   1   3     1.070004294785   143.07770562    40.86734310
 H      3   1   2     1.069991509772    89.65616665   336.17389649
 H      3   1   2     1.070008907673   143.45442867   213.40182391
 H      4   2   1     1.070008629421   160.93593850   213.27452146
 H      4   2   1     1.069996784555    63.07524129   143.53512798
 H     29   2   1     0.783506147627   144.53757486    32.14134817
 H      5   1   2     1.070008457629   143.45441153   143.94258781
 H      6   3   1     1.070002932166   144.60622171   267.56155984
 H      6   3   1     1.069998801425    88.85452193   143.28877490
 H      7   5   1     1.070001690352    89.32902230   216.43024002
 H      7   5   1     1.069995563962   144.34073002    91.60649892
 H      8   6   3     1.070002207011   145.14813578   215.49452431
 H     37   6   3     0.744581473395   143.67474239    62.06104380
 H      9   7   5     1.070002897046   145.37732653   145.27378866
 H      9   7   5     1.069998336687    89.16959385   270.84373777
 H     10   9   7     1.070002153970   145.14812966   144.76011292
 H     43   9   7     0.744581167756   143.67473629   300.54055362
 H     40   7   5     0.744581003497   145.51897272   298.58473538
 H     11   7   5     1.069998826748   145.69948101   144.51454585
 H     12   7   5     1.069995472817   109.98972405   211.05044891
 H     13   8   6     1.069995477087   109.98975809    90.79100389
 H     14   6   3     1.069995466053   109.98975817   148.94952882
 H     15   3   1     1.069995021169   100.46116411   182.87308408
 H     16   1   2     1.069995530547   106.99377717   240.87773465
 H     17   2   1     1.069995469994   109.17096225   209.14698702
 H     18   3   1     1.070001083127   109.14081208   209.46733768
 H     19   5   1     1.070001544491   109.14088143   150.53266271
 H     20   4   2     1.070001075895   109.14085337   120.92648833
 H     21   1   2     1.070001583536   106.41034515    92.35939567
 H     22   1   2     1.070001595687   106.41041639   291.94871448
 H     23   4   2     1.070001549387   109.14085327   258.30749264
 H     26  16   1     1.070008557450   109.46621821   177.47400827
 H     31   3   1     0.783365299558   143.60830344    31.99437336
 H     34   4   2     0.787701494038   142.83583394   341.07939131
 H     27  17   2     1.070004297035   109.46009777    59.54970980

---------------------------
INTERNAL COORDINATES (A.U.)
---------------------------
 C      0   0   0     0.000000000000     0.00000000     0.00000000
 C      1   0   0     4.735954515166     0.00000000     0.00000000
 C      1   2   0     4.755436737804   120.47980034     0.00000000
 C      2   1   3     8.239590353458    75.28951498   283.77948099
 C      1   2   3     4.755437030228    60.13666438   174.71907254
 C      3   1   2     4.762239831496    91.79194712   121.28833101
 C      5   1   2     4.762239799506    91.79201994   236.05607763
 C      6   3   1     4.703185113388   120.26272267   304.19020213
 C      7   5   1     4.750675026006    60.08027955   306.41229828
 C      9   7   5     4.703183192919   120.00002881   109.82545098
 C      7   5   1     4.703182107072   120.26270158    55.80983235
 C      7   5   1     2.940290468938    91.16206226   325.68709314
 C      8   6   3     2.940289240929    89.52038815    91.06561730
 C      6   3   1     2.940289258165    91.16212214    34.31292441
 C      3   1   2     5.569882928580    65.88562639    32.41919376
 C      1   2   3     2.815550985718    35.15414078   323.08151360
 C      2   1   3     2.924406050625    92.09616882   273.73521376
 C      3   1   2     2.917046449722    91.74891424    85.78589529
 C      5   1   2     2.917046408002    91.74900365   271.55851522
 C      4   2   1     2.917046316836    89.43441787    30.89183769
 C      1   2   3     2.837327057200    90.89532350   191.81515948
 C      1   2   3     2.837328065934   148.15946933   329.09681936
 C      4   2   1     2.917045031875    61.29331666   278.87882690
 C     15   3   1     2.815551037632    58.60967734    79.25168918
 C     17   2   1     2.815551110830   111.18022714   326.95804091
 C     16   1   2     2.924404652583   111.18021291   121.75553491
 C     17   2   1     2.924404658050   109.09004221    89.92306830
 N     12   7   5     2.789020607228   111.44049751    93.52608410
 H      2   1   3     2.021989421325    89.79352599   164.26253071
 H      2   1   3     2.022015079263   143.07770562    40.86734310
 H      3   1   2     2.021990919090    89.65616665   336.17389649
 H      3   1   2     2.022023796359   143.45442867   213.40182391
 H      4   2   1     2.022023270538   160.93593850   213.27452146
 H      4   2   1     2.022000886985    63.07524129   143.53512798
 H     29   2   1     1.480612043259   144.53757486    32.14134817
 H      5   1   2     2.022022945899   143.45441153   143.94258781
 H      6   3   1     2.022012504287   144.60622171   267.56155984
 H      6   3   1     2.022004698317    88.85452193   143.28877490
 H      7   5   1     2.022010157598    89.32902230   216.43024002
 H      7   5   1     2.021998580399   144.34073002    91.60649892
 H      8   6   3     2.022011133941   145.14813578   215.49452431
 H     37   6   3     1.407055069108   143.67474239    62.06104380
 H      9   7   5     2.022012437919   145.37732653   145.27378866
 H      9   7   5     2.022003820089    89.16959385   270.84373777
 H     10   9   7     2.022011033710   145.14812966   144.76011292
 H     43   9   7     1.407054491534   143.67473629   300.54055362
 H     40   7   5     1.407054181130   145.51897272   298.58473538
 H     11   7   5     2.022004746171   145.69948101   144.51454585
 H     12   7   5     2.021998408159   109.98972405   211.05044891
 H     13   8   6     2.021998416228   109.98975809    90.79100389
 H     14   6   3     2.021998395377   109.98975817   148.94952882
 H     15   3   1     2.021997554668   100.46116411   182.87308408
 H     16   1   2     2.021998517254   106.99377717   240.87773465
 H     17   2   1     2.021998402826   109.17096225   209.14698702
 H     18   3   1     2.022009010109   109.14081208   209.46733768
 H     19   5   1     2.022009881961   109.14088143   150.53266271
 H     20   4   2     2.022008996443   109.14085337   120.92648833
 H     21   1   2     2.022009955745   106.41034515    92.35939567
 H     22   1   2     2.022009978707   106.41041639   291.94871448
 H     23   4   2     2.022009891214   109.14085327   258.30749264
 H     26  16   1     2.022023134533   109.46621821   177.47400827
 H     31   3   1     1.480345878982   143.60830344    31.99437336
 H     34   4   2     1.488540099012   142.83583394   341.07939131
 H     27  17   2     2.022015083516   109.46009777    59.54970980

---------------------
BASIS SET INFORMATION
---------------------
There are 3 groups of distinct atoms

 Group   1 Type C   : 10s5p1d contracted to 6s2p1d pattern {511111/41/1}
 Group   2 Type N   : 10s5p1d contracted to 6s2p1d pattern {511111/41/1}
 Group   3 Type H   : 6s1p contracted to 4s1p pattern {3111/1}

Atom   0C    basis set group =>   1
Atom   1C    basis set group =>   1
Atom   2C    basis set group =>   1
Atom   3C    basis set group =>   1
Atom   4C    basis set group =>   1
Atom   5C    basis set group =>   1
Atom   6C    basis set group =>   1
Atom   7C    basis set group =>   1
Atom   8C    basis set group =>   1
Atom   9C    basis set group =>   1
Atom  10C    basis set group =>   1
Atom  11C    basis set group =>   1
Atom  12C    basis set group =>   1
Atom  13C    basis set group =>   1
Atom  14C    basis set group =>   1
Atom  15C    basis set group =>   1
Atom  16C    basis set group =>   1
Atom  17C    basis set group =>   1
Atom  18C    basis set group =>   1
Atom  19C    basis set group =>   1
Atom  20C    basis set group =>   1
Atom  21C    basis set group =>   1
Atom  22C    basis set group =>   1
Atom  23C    basis set group =>   1
Atom  24C    basis set group =>   1
Atom  25C    basis set group =>   1
Atom  26C    basis set group =>   1
Atom  27N    basis set group =>   2
Atom  28H    basis set group =>   3
Atom  29H    basis set group =>   3
Atom  30H    basis set group =>   3
Atom  31H    basis set group =>   3
Atom  32H    basis set group =>   3
Atom  33H    basis set group =>   3
Atom  34H    basis set group =>   3
Atom  35H    basis set group =>   3
Atom  36H    basis set group =>   3
Atom  37H    basis set group =>   3
Atom  38H    basis set group =>   3
Atom  39H    basis set group =>   3
Atom  40H    basis set group =>   3
Atom  41H    basis set group =>   3
Atom  42H    basis set group =>   3
Atom  43H    basis set group =>   3
Atom  44H    basis set group =>   3
Atom  45H    basis set group =>   3
Atom  46H    basis set group =>   3
Atom  47H    basis set group =>   3
Atom  48H    basis set group =>   3
Atom  49H    basis set group =>   3
Atom  50H    basis set group =>   3
Atom  51H    basis set group =>   3
Atom  52H    basis set group =>   3
Atom  53H    basis set group =>   3
Atom  54H    basis set group =>   3
Atom  55H    basis set group =>   3
Atom  56H    basis set group =>   3
Atom  57H    basis set group =>   3
Atom  58H    basis set group =>   3
Atom  59H    basis set group =>   3
Atom  60H    basis set group =>   3
Atom  61H    basis set group =>   3
Atom  62H    basis set group =>   3
Atom  63H    basis set group =>   3
---------------------------------
AUXILIARY/J BASIS SET INFORMATION
---------------------------------
There are 3 groups of distinct atoms

 Group   1 Type C   : 17s13p12d2f contracted to 17s13p12d2f pattern {11111111111111111/1111111111111/111111111111/11}
 Group   2 Type N   : 17s13p12d2f contracted to 17s13p12d2f pattern {11111111111111111/1111111111111/111111111111/11}
 Group   3 Type H   : 15s6p1d contracted to 15s6p1d pattern {111111111111111/111111/1}

Atom   0C    basis set group =>   1
Atom   1C    basis set group =>   1
Atom   2C    basis set group =>   1
Atom   3C    basis set group =>   1
Atom   4C    basis set group =>   1
Atom   5C    basis set group =>   1
Atom   6C    basis set group =>   1
Atom   7C    basis set group =>   1
Atom   8C    basis set group =>   1
Atom   9C    basis set group =>   1
Atom  10C    basis set group =>   1
Atom  11C    basis set group =>   1
Atom  12C    basis set group =>   1
Atom  13C    basis set group =>   1
Atom  14C    basis set group =>   1
Atom  15C    basis set group =>   1
Atom  16C    basis set group =>   1
Atom  17C    basis set group =>   1
Atom  18C    basis set group =>   1
Atom  19C    basis set group =>   1
Atom  20C    basis set group =>   1
Atom  21C    basis set group =>   1
Atom  22C    basis set group =>   1
Atom  23C    basis set group =>   1
Atom  24C    basis set group =>   1
Atom  25C    basis set group =>   1
Atom  26C    basis set group =>   1
Atom  27N    basis set group =>   2
Atom  28H    basis set group =>   3
Atom  29H    basis set group =>   3
Atom  30H    basis set group =>   3
Atom  31H    basis set group =>   3
Atom  32H    basis set group =>   3
Atom  33H    basis set group =>   3
Atom  34H    basis set group =>   3
Atom  35H    basis set group =>   3
Atom  36H    basis set group =>   3
Atom  37H    basis set group =>   3
Atom  38H    basis set group =>   3
Atom  39H    basis set group =>   3
Atom  40H    basis set group =>   3
Atom  41H    basis set group =>   3
Atom  42H    basis set group =>   3
Atom  43H    basis set group =>   3
Atom  44H    basis set group =>   3
Atom  45H    basis set group =>   3
Atom  46H    basis set group =>   3
Atom  47H    basis set group =>   3
Atom  48H    basis set group =>   3
Atom  49H    basis set group =>   3
Atom  50H    basis set group =>   3
Atom  51H    basis set group =>   3
Atom  52H    basis set group =>   3
Atom  53H    basis set group =>   3
Atom  54H    basis set group =>   3
Atom  55H    basis set group =>   3
Atom  56H    basis set group =>   3
Atom  57H    basis set group =>   3
Atom  58H    basis set group =>   3
Atom  59H    basis set group =>   3
Atom  60H    basis set group =>   3
Atom  61H    basis set group =>   3
Atom  62H    basis set group =>   3
Atom  63H    basis set group =>   3
---------------------------------
AUXILIARY/C BASIS SET INFORMATION
---------------------------------
There are 3 groups of distinct atoms

 Group   1 Type C   : 17s13p12d2f contracted to 17s13p12d2f pattern {11111111111111111/1111111111111/111111111111/11}
 Group   2 Type N   : 17s13p12d2f contracted to 17s13p12d2f pattern {11111111111111111/1111111111111/111111111111/11}
 Group   3 Type H   : 15s6p1d contracted to 15s6p1d pattern {111111111111111/111111/1}

Atom   0C    basis set group =>   1
Atom   1C    basis set group =>   1
Atom   2C    basis set group =>   1
Atom   3C    basis set group =>   1
Atom   4C    basis set group =>   1
Atom   5C    basis set group =>   1
Atom   6C    basis set group =>   1
Atom   7C    basis set group =>   1
Atom   8C    basis set group =>   1
Atom   9C    basis set group =>   1
Atom  10C    basis set group =>   1
Atom  11C    basis set group =>   1
Atom  12C    basis set group =>   1
Atom  13C    basis set group =>   1
Atom  14C    basis set group =>   1
Atom  15C    basis set group =>   1
Atom  16C    basis set group =>   1
Atom  17C    basis set group =>   1
Atom  18C    basis set group =>   1
Atom  19C    basis set group =>   1
Atom  20C    basis set group =>   1
Atom  21C    basis set group =>   1
Atom  22C    basis set group =>   1
Atom  23C    basis set group =>   1
Atom  24C    basis set group =>   1
Atom  25C    basis set group =>   1
Atom  26C    basis set group =>   1
Atom  27N    basis set group =>   2
Atom  28H    basis set group =>   3
Atom  29H    basis set group =>   3
Atom  30H    basis set group =>   3
Atom  31H    basis set group =>   3
Atom  32H    basis set group =>   3
Atom  33H    basis set group =>   3
Atom  34H    basis set group =>   3
Atom  35H    basis set group =>   3
Atom  36H    basis set group =>   3
Atom  37H    basis set group =>   3
Atom  38H    basis set group =>   3
Atom  39H    basis set group =>   3
Atom  40H    basis set group =>   3
Atom  41H    basis set group =>   3
Atom  42H    basis set group =>   3
Atom  43H    basis set group =>   3
Atom  44H    basis set group =>   3
Atom  45H    basis set group =>   3
Atom  46H    basis set group =>   3
Atom  47H    basis set group =>   3
Atom  48H    basis set group =>   3
Atom  49H    basis set group =>   3
Atom  50H    basis set group =>   3
Atom  51H    basis set group =>   3
Atom  52H    basis set group =>   3
Atom  53H    basis set group =>   3
Atom  54H    basis set group =>   3
Atom  55H    basis set group =>   3
Atom  56H    basis set group =>   3
Atom  57H    basis set group =>   3
Atom  58H    basis set group =>   3
Atom  59H    basis set group =>   3
Atom  60H    basis set group =>   3
Atom  61H    basis set group =>   3
Atom  62H    basis set group =>   3
Atom  63H    basis set group =>   3
----------------------------------
AUXILIARY/JK BASIS SET INFORMATION
----------------------------------
There are 3 groups of distinct atoms

 Group   1 Type C   : 17s13p12d2f contracted to 17s13p12d2f pattern {11111111111111111/1111111111111/111111111111/11}
 Group   2 Type N   : 17s13p12d2f contracted to 17s13p12d2f pattern {11111111111111111/1111111111111/111111111111/11}
 Group   3 Type H   : 15s6p1d contracted to 15s6p1d pattern {111111111111111/111111/1}

Atom   0C    basis set group =>   1
Atom   1C    basis set group =>   1
Atom   2C    basis set group =>   1
Atom   3C    basis set group =>   1
Atom   4C    basis set group =>   1
Atom   5C    basis set group =>   1
Atom   6C    basis set group =>   1
Atom   7C    basis set group =>   1
Atom   8C    basis set group =>   1
Atom   9C    basis set group =>   1
Atom  10C    basis set group =>   1
Atom  11C    basis set group =>   1
Atom  12C    basis set group =>   1
Atom  13C    basis set group =>   1
Atom  14C    basis set group =>   1
Atom  15C    basis set group =>   1
Atom  16C    basis set group =>   1
Atom  17C    basis set group =>   1
Atom  18C    basis set group =>   1
Atom  19C    basis set group =>   1
Atom  20C    basis set group =>   1
Atom  21C    basis set group =>   1
Atom  22C    basis set group =>   1
Atom  23C    basis set group =>   1
Atom  24C    basis set group =>   1
Atom  25C    basis set group =>   1
Atom  26C    basis set group =>   1
Atom  27N    basis set group =>   2
Atom  28H    basis set group =>   3
Atom  29H    basis set group =>   3
Atom  30H    basis set group =>   3
Atom  31H    basis set group =>   3
Atom  32H    basis set group =>   3
Atom  33H    basis set group =>   3
Atom  34H    basis set group =>   3
Atom  35H    basis set group =>   3
Atom  36H    basis set group =>   3
Atom  37H    basis set group =>   3
Atom  38H    basis set group =>   3
Atom  39H    basis set group =>   3
Atom  40H    basis set group =>   3
Atom  41H    basis set group =>   3
Atom  42H    basis set group =>   3
Atom  43H    basis set group =>   3
Atom  44H    basis set group =>   3
Atom  45H    basis set group =>   3
Atom  46H    basis set group =>   3
Atom  47H    basis set group =>   3
Atom  48H    basis set group =>   3
Atom  49H    basis set group =>   3
Atom  50H    basis set group =>   3
Atom  51H    basis set group =>   3
Atom  52H    basis set group =>   3
Atom  53H    basis set group =>   3
Atom  54H    basis set group =>   3
Atom  55H    basis set group =>   3
Atom  56H    basis set group =>   3
Atom  57H    basis set group =>   3
Atom  58H    basis set group =>   3
Atom  59H    basis set group =>   3
Atom  60H    basis set group =>   3
Atom  61H    basis set group =>   3
Atom  62H    basis set group =>   3
Atom  63H    basis set group =>   3


           ************************************************************
           *        Program running with 72 parallel MPI-processes    *
           *              working on a shared directory               *
           ************************************************************
------------------------------------------------------------------------------
                           ORCA GTO INTEGRAL CALCULATION
                           -- RI-GTO INTEGRALS CHOSEN --
------------------------------------------------------------------------------

                         BASIS SET STATISTICS AND STARTUP INFO

Gaussian basis set:
 # of primitive gaussian shells          ...  700
 # of primitive gaussian functions       ... 1164
 # of contracted shells                  ...  432
 # of contracted basis functions         ...  728
 Highest angular momentum                ...    2
 Maximum contraction depth               ...    5
Auxiliary gaussian basis set:
 # of primitive gaussian shells          ... 2024
 # of primitive gaussian functions       ... 5008
 # of contracted shells                  ... 2024
 # of contracted aux-basis functions     ... 5008
 Highest angular momentum                ...    3
 Maximum contraction depth               ...    1
Ratio of auxiliary to basis functions    ...  6.88
Integral package used                  ... LIBINT
 One Electron integrals                  ... done
 Ordering auxiliary basis shells         ... done
 Integral threshhold             Thresh  ...  1.000e-10
 Primitive cut-off               TCut    ...  1.000e-11
 Pre-screening matrix                    ... done
 Shell pair data                         ... 
 Ordering of the shell pairs             ... done (   0.015 sec) 66493 of 93528 pairs
 Determination of significant pairs      ... done (   0.000 sec)
 Creation of shell pair data             ... done (   0.013 sec)
 Storage of shell pair data              ... done (   0.097 sec)
 Shell pair data done in (   0.125 sec)
 Computing two index integrals           ... done
 Cholesky decomposition of the V-matrix  ... done


Timings:
 Total evaluation time                   ...   4.573 sec (  0.076 min)
 One electron matrix time                ...   0.709 sec (  0.012 min) = 15.5%
 Schwartz matrix evaluation time         ...   0.367 sec (  0.006 min) =  8.0%
 Two index repulsion integral time       ...   0.999 sec (  0.017 min) = 21.8%
 Cholesky decomposition of V             ...   2.345 sec (  0.039 min) = 51.3%
 Three index repulsion integral time     ...   0.001 sec (  0.000 min) =  0.0%



           ************************************************************
           *        Program running with 72 parallel MPI-processes    *
           *              working on a shared directory               *
           ************************************************************
-------------------------------------------------------------------------------
                                 ORCA SCF
-------------------------------------------------------------------------------

------------
SCF SETTINGS
------------
Hamiltonian:
 Density Functional     Method          .... DFT(GTOs)
 Exchange Functional    Exchange        .... PBE
   PBE kappa parameter   XKappa         ....  0.804000
   PBE mue parameter    XMuePBE         ....  0.219520
 Correlation Functional Correlation     .... PBE
   PBE beta parameter  CBetaPBE         ....  0.066725
 LDA part of GGA corr.  LDAOpt          .... PW91-LDA
 Gradients option       PostSCFGGA      .... off
   Density functional embedding theory  .... OFF
   NL short-range parameter             ....  6.400000
 RI-approximation to the Coulomb term is turned on
   Number of auxiliary basis functions  .... 5008
   RIJ-COSX (HFX calculated with COS-X)).... on


General Settings:
 Integral files         IntName         .... zfs
 Hartree-Fock type      HFTyp           .... UHF
 Total Charge           Charge          ....   -1
 Multiplicity           Mult            ....    3
 Number of Electrons    NEL             ....  206
 Basis Dimension        Dim             ....  728
 Nuclear Repulsion      ENuc            ....   3308.0184380888 Eh

Convergence Acceleration:
 DIIS                   CNVDIIS         .... on
   Start iteration      DIISMaxIt       ....    12
   Startup error        DIISStart       ....  0.200000
   # of expansion vecs  DIISMaxEq       ....     5
   Bias factor          DIISBfac        ....   1.050
   Max. coefficient     DIISMaxC        ....  10.000
 Newton-Raphson         CNVNR           .... off
 SOSCF                  CNVSOSCF        .... off
 Level Shifting         CNVShift        .... on
   Level shift para.    LevelShift      ....    0.2500
   Turn off err/grad.   ShiftErr        ....    0.0010
 Zerner damping         CNVZerner       .... off
 Static damping         CNVDamp         .... on
   Fraction old density DampFac         ....    0.7000
   Max. Damping (<1)    DampMax         ....    0.9800
   Min. Damping (>=0)   DampMin         ....    0.0000
   Turn off err/grad.   DampErr         ....    0.1000
 Fernandez-Rico         CNVRico         .... off

SCF Procedure:
 Maximum # iterations   MaxIter         ....   125
 SCF integral mode      SCFMode         .... Direct
   Integral package                     .... LIBINT
 Reset frequency        DirectResetFreq ....    20
 Integral Threshold     Thresh          ....  1.000e-10 Eh
 Primitive CutOff       TCut            ....  1.000e-11 Eh

Convergence Tolerance:
 Convergence Check Mode ConvCheckMode   .... Total+1el-Energy
 Convergence forced     ConvForced      .... 0
 Energy Change          TolE            ....  1.000e-06 Eh
 1-El. energy change                    ....  1.000e-03 Eh
 DIIS Error             TolErr          ....  1.000e-06


Diagonalization of the overlap matrix:
Smallest eigenvalue                        ... 1.744e-04
Time for diagonalization                   ...    0.126 sec
Threshold for overlap eigenvalues          ... 1.000e-08
Number of eigenvalues below threshold      ... 0
Time for construction of square roots      ...    0.313 sec
Total time needed                          ...    0.441 sec

-------------------
DFT GRID GENERATION
-------------------

General Integration Accuracy     IntAcc      ...  4.340
Radial Grid Type                 RadialGrid  ... Gauss-Chebyshev
Angular Grid (max. acc.)         AngularGrid ... Lebedev-110
Angular grid pruning method      GridPruning ... 3 (G Style)
Weight generation scheme         WeightScheme... Becke
Basis function cutoff            BFCut       ...    1.0000e-10
Integration weight cutoff        WCut        ...    1.0000e-14
Grids for H and He will be reduced by one unit

# of grid points (after initial pruning)     ...  74998 (   0.0 sec)
# of grid points (after weights+screening)   ...  62524 (   0.1 sec)
nearest neighbour list constructed           ...    0.0 sec
Grid point re-assignment to atoms done       ...    0.0 sec
Grid point division into batches done        ...    0.1 sec
Reduced shell lists constructed in    0.1 sec

Total number of grid points                  ...    62524
Total number of batches                      ...     1010
Average number of points per batch           ...       61
Average number of grid points per atom       ...      977
Average number of shells per batch           ...   227.38 (52.63%)
Average number of basis functions per batch  ...   456.62 (62.72%)
Average number of large shells per batch     ...   171.44 (75.40%)
Average number of large basis fcns per batch ...   341.06 (74.69%)
Maximum spatial batch extension              ...   2.18,  2.31,  2.38 au
Average spatial batch extension              ...   0.03,  0.03,  0.03 au

Time for grid setup =    0.395 sec

------------------------------
INITIAL GUESS: MODEL POTENTIAL
------------------------------
Loading Hartree-Fock densities                     ... done
Calculating cut-offs                               ... done
Setting up the integral package                    ... done
Initializing the effective Hamiltonian             ... done
Starting the Coulomb interaction                   ... done (   0.1 sec)
Reading the grid                                   ... done
Mapping shells                                     ... done
Starting the XC term evaluation                    ... done (   0.2 sec)
  promolecular density results
     # of electrons  =    204.966069851
     EX              =   -156.125111802
     EC              =     -7.166451179
     EX+EC           =   -163.291562980
Transforming the Hamiltonian                       ... done (   0.1 sec)
Diagonalizing the Hamiltonian                      ... done (   0.1 sec)
Back transforming the eigenvectors                 ... done (   0.1 sec)
Now organizing SCF variables                       ... done
                      ------------------
                      INITIAL GUESS DONE (   1.2 sec)
                      ------------------
--------------------
COSX GRID GENERATION
--------------------

General Integration Accuracy     IntAcc      ...  3.340
Radial Grid Type                 RadialGrid  ... Gauss-Chebyshev
Angular Grid (max. acc.)         AngularGrid ... Lebedev-50
Angular grid pruning method      GridPruning ... 3 (G Style)
Weight generation scheme         WeightScheme... Becke
Basis function cutoff            BFCut       ...    1.0000e-10
Integration weight cutoff        WCut        ...    1.0000e-14
Grids for H and He will be reduced by one unit

# of grid points (after initial pruning)     ...  27746 (   0.0 sec)
# of grid points (after weights+screening)   ...  23443 (   0.0 sec)
nearest neighbour list constructed           ...    0.0 sec
Grid point re-assignment to atoms done       ...    0.0 sec
Grid point division into batches done        ...    0.0 sec
Reduced shell lists constructed in    0.0 sec

Total number of grid points                  ...    23443
Total number of batches                      ...      391
Average number of points per batch           ...       59
Average number of grid points per atom       ...      366
Average number of shells per batch           ...   217.14 (50.26%)
Average number of basis functions per batch  ...   434.29 (59.65%)
Average number of large shells per batch     ...   162.71 (74.93%)
Average number of large basis fcns per batch ...   325.86 (75.03%)
Maximum spatial batch extension              ...   3.12,  3.06,  2.80 au
Average spatial batch extension              ...   0.04,  0.03,  0.03 au

Overlap Fitting                  UseSFitting ... on
Constructing numerical overlap ... done (      0.0 sec)
Inverting numerical overlap    ... done (      0.0 sec)
Obtaining analytic overlap     ... done (      0.0 sec)
Final contraction and storage  ... done (      0.1 sec)


General Integration Accuracy     IntAcc      ...  3.670
Radial Grid Type                 RadialGrid  ... Gauss-Chebyshev
Angular Grid (max. acc.)         AngularGrid ... Lebedev-50
Angular grid pruning method      GridPruning ... 3 (G Style)
Weight generation scheme         WeightScheme... Becke
Basis function cutoff            BFCut       ...    1.0000e-10
Integration weight cutoff        WCut        ...    1.0000e-14
Grids for H and He will be reduced by one unit

# of grid points (after initial pruning)     ...  35464 (   0.0 sec)
# of grid points (after weights+screening)   ...  29862 (   0.0 sec)
nearest neighbour list constructed           ...    0.0 sec
Grid point re-assignment to atoms done       ...    0.0 sec
Grid point division into batches done        ...    0.0 sec
Reduced shell lists constructed in    0.0 sec

Total number of grid points                  ...    29862
Total number of batches                      ...      498
Average number of points per batch           ...       59
Average number of grid points per atom       ...      467
Average number of shells per batch           ...   223.50 (51.74%)
Average number of basis functions per batch  ...   446.50 (61.33%)
Average number of large shells per batch     ...   168.00 (75.17%)
Average number of large basis fcns per batch ...   339.00 (75.92%)
Maximum spatial batch extension              ...   2.99,  2.79,  2.68 au
Average spatial batch extension              ...   0.03,  0.03,  0.03 au

Overlap Fitting                  UseSFitting ... on
Constructing numerical overlap ... done (      0.0 sec)
Inverting numerical overlap    ... done (      0.0 sec)
Obtaining analytic overlap     ... done (      0.0 sec)
Final contraction and storage  ... done (      0.1 sec)


General Integration Accuracy     IntAcc      ...  4.010
Radial Grid Type                 RadialGrid  ... Gauss-Chebyshev
Angular Grid (max. acc.)         AngularGrid ... Lebedev-110
Angular grid pruning method      GridPruning ... 3 (G Style)
Weight generation scheme         WeightScheme... Becke
Basis function cutoff            BFCut       ...    1.0000e-10
Integration weight cutoff        WCut        ...    1.0000e-14
Grids for H and He will be reduced by one unit

# of grid points (after initial pruning)     ...  65152 (   0.0 sec)
# of grid points (after weights+screening)   ...  54586 (   0.1 sec)
nearest neighbour list constructed           ...    0.0 sec
Grid point re-assignment to atoms done       ...    0.0 sec
Grid point division into batches done        ...    0.0 sec
Reduced shell lists constructed in    0.1 sec

Total number of grid points                  ...    54586
Total number of batches                      ...      884
Average number of points per batch           ...       61
Average number of grid points per atom       ...      853
Average number of shells per batch           ...   225.79 (52.27%)
Average number of basis functions per batch  ...   452.93 (62.22%)
Average number of large shells per batch     ...   169.14 (74.91%)
Average number of large basis fcns per batch ...   337.43 (74.50%)
Maximum spatial batch extension              ...   2.54,  2.23,  2.30 au
Average spatial batch extension              ...   0.03,  0.03,  0.03 au

Overlap Fitting                  UseSFitting ... on
Constructing numerical overlap ... done (      0.1 sec)
Inverting numerical overlap    ... done (      0.0 sec)
Obtaining analytic overlap     ... done (      0.0 sec)
Final contraction and storage  ... done (      0.1 sec)

Time for X-Grid setup             =    1.272 sec
--------------
SCF ITERATIONS
--------------
ITER       Energy         Delta-E        Max-DP      RMS-DP      [F,P]     Damp
               ***  Starting incremental Fock matrix formation  ***
  0  -1102.3544908022   0.000000000000 7.81948817  0.02040385  0.1512230 0.7000
  1  -1102.7796865538  -0.425195751621 4.93873871  0.01273037  0.0656698 0.7000
                               ***Turning on DIIS***
  2  -1102.8697716899  -0.090085136042 0.81654626  0.00359466  0.0352232 0.0000
  3  -1103.1231868146  -0.253415124698 4.51677599  0.01132113  0.0323385 0.0000
  4  -1103.1563994739  -0.033212659364 1.45844656  0.00364750  0.0198655 0.0000
  5  -1103.1657540411  -0.009354567134 0.65134297  0.00160481  0.0058005 0.0000
  6  -1103.1670946494  -0.001340608270 0.44003037  0.00108153  0.0014124 0.0000
  7  -1103.1673014964  -0.000206847064 0.26521308  0.00064069  0.0023743 0.0000
  8  -1103.1674063458  -0.000104849386 0.55313629  0.00132206  0.0005468 0.0000
  9  -1103.1674731521  -0.000066806345 0.09952222  0.00028921  0.0008017 0.0000
 10  -1103.1674797067  -0.000006554558 0.08875372  0.00022610  0.0005223 0.0000
 11  -1103.1674844440  -0.000004737297 0.02531270  0.00006632  0.0003556 0.0000
 12  -1103.1674863995  -0.000001955471 0.00720463  0.00001836  0.0000655 0.0000
 13  -1103.1674863302   0.000000069228 0.00669099  0.00001144  0.0000931 0.0000
                 **** Energy Check signals convergence ****

               *****************************************************
               *                     SUCCESS                       *
               *           SCF CONVERGED AFTER  14 CYCLES          *
               *****************************************************

Setting up the final grid:

General Integration Accuracy     IntAcc      ...  4.670
Radial Grid Type                 RadialGrid  ... Gauss-Chebyshev
Angular Grid (max. acc.)         AngularGrid ... Lebedev-302
Angular grid pruning method      GridPruning ... 3 (G Style)
Weight generation scheme         WeightScheme... Becke
Basis function cutoff            BFCut       ...    1.0000e-10
Integration weight cutoff        WCut        ...    1.0000e-14
Grids for H and He will be reduced by one unit

# of grid points (after initial pruning)     ... 296120 (   0.0 sec)
# of grid points (after weights+screening)   ... 239128 (   0.2 sec)
nearest neighbour list constructed           ...    0.0 sec
Grid point re-assignment to atoms done       ...    0.1 sec
Grid point division into batches done        ...    0.8 sec
Reduced shell lists constructed in    0.9 sec

Total number of grid points                  ...   239128
Total number of batches                      ...     3764
Average number of points per batch           ...       63
Average number of grid points per atom       ...     3736
Average number of shells per batch           ...   226.83 (52.51%)
Average number of basis functions per batch  ...   456.80 (62.75%)
Average number of large shells per batch     ...   168.37 (74.23%)
Average number of large basis fcns per batch ...   332.81 (72.86%)
Maximum spatial batch extension              ...   1.61,  1.89,  1.84 au
Average spatial batch extension              ...   0.02,  0.02,  0.02 au

Final grid set up in    1.3 sec
Final integration                            ... done (   0.9 sec)
Change in XC energy                          ...    -0.000489718
Integrated number of electrons               ...   206.000427510
Previous integrated no of electrons          ...   205.996038561

----------------
TOTAL SCF ENERGY
----------------

Total Energy       :        -1103.16797620 Eh          -30018.72676 eV

Components:
Nuclear Repulsion  :         3308.01843809 Eh           90015.75801 eV
Electronic Energy  :        -4411.18641429 Eh         -120034.48477 eV
One Electron Energy:        -8103.22110726 Eh         -220499.85632 eV
Two Electron Energy:         3692.03469296 Eh          100465.37156 eV

Virial components:
Potential Energy   :        -2203.46230807 Eh          -59959.25767 eV
Kinetic Energy     :         1100.29433187 Eh           29940.53092 eV
Virial Ratio       :            2.00261171


DFT components:
N(Alpha)           :      104.000243957709 electrons
N(Beta)            :      102.000183552254 electrons
N(Total)           :      206.000427509963 electrons
E(X)               :     -159.757871315301 Eh       
E(C)               :       -7.076901277987 Eh       
E(XC)              :     -166.834772593288 Eh       
DFET-embed. en.    :        0.000000000000 Eh       

---------------
SCF CONVERGENCE
---------------

  Last Energy change         ...   -1.5462e-07  Tolerance :   1.0000e-06
  Last MAX-Density change    ...    7.8382e-04  Tolerance :   1.0000e-05
  Last RMS-Density change    ...    1.8670e-06  Tolerance :   1.0000e-06
  Last DIIS Error            ...    3.1452e-05  Tolerance :   1.0000e-06

             **** THE GBW FILE WAS UPDATED (zfs.gbw) ****
             **** DENSITY FILE WAS UPDATED (zfs.scfp) ****
             **** ENERGY FILE WAS UPDATED (zfs.en.tmp) ****
----------------------
UHF SPIN CONTAMINATION
----------------------

Warning: in a DFT calculation there is little theoretical justification to 
         calculate <S**2> as in Hartree-Fock theory. We will do it anyways
         but you should keep in mind that the values have only limited relevance

Expectation value of <S**2>     :     2.011135
Ideal value S*(S+1) for S=1.0   :     2.000000
Deviation                       :     0.011135

             **** THE GBW FILE WAS UPDATED (zfs.gbw) ****
             **** DENSITY FILE WAS UPDATED (zfs.scfp) ****
----------------
ORBITAL ENERGIES
----------------
                 SPIN UP ORBITALS
  NO   OCC          E(Eh)            E(eV) 
   0   1.0000     -13.855694      -377.0326 
   1   1.0000      -9.801438      -266.7107 
   2   1.0000      -9.801157      -266.7030 
   3   1.0000      -9.801087      -266.7011 
   4   1.0000      -9.762962      -265.6637 
   5   1.0000      -9.762675      -265.6559 
   6   1.0000      -9.762662      -265.6555 
   7   1.0000      -9.762625      -265.6545 
   8   1.0000      -9.762619      -265.6544 
   9   1.0000      -9.762603      -265.6539 
  10   1.0000      -9.755791      -265.4686 
  11   1.0000      -9.755534      -265.4616 
  12   1.0000      -9.755353      -265.4567 
  13   1.0000      -9.749084      -265.2861 
  14   1.0000      -9.749048      -265.2851 
  15   1.0000      -9.748942      -265.2822 
  16   1.0000      -9.748580      -265.2723 
  17   1.0000      -9.748347      -265.2660 
  18   1.0000      -9.747932      -265.2547 
  19   1.0000      -9.740092      -265.0414 
  20   1.0000      -9.739504      -265.0254 
  21   1.0000      -9.739140      -265.0155 
  22   1.0000      -9.735734      -264.9228 
  23   1.0000      -9.735370      -264.9129 
  24   1.0000      -9.735328      -264.9117 
  25   1.0000      -9.734585      -264.8915 
  26   1.0000      -9.734433      -264.8874 
  27   1.0000      -9.734100      -264.8783 
  28   1.0000      -0.729676       -19.8555 
  29   1.0000      -0.667427       -18.1616 
  30   1.0000      -0.652356       -17.7515 
  31   1.0000      -0.652243       -17.7484 
  32   1.0000      -0.609345       -16.5811 
  33   1.0000      -0.598146       -16.2764 
  34   1.0000      -0.598073       -16.2744 
  35   1.0000      -0.582449       -15.8492 
  36   1.0000      -0.582349       -15.8465 
  37   1.0000      -0.545774       -14.8513 
  38   1.0000      -0.521605       -14.1936 
  39   1.0000      -0.521507       -14.1909 
  40   1.0000      -0.518962       -14.1217 
  41   1.0000      -0.515944       -14.0395 
  42   1.0000      -0.515722       -14.0335 
  43   1.0000      -0.501955       -13.6589 
  44   1.0000      -0.444674       -12.1002 
  45   1.0000      -0.444616       -12.0986 
  46   1.0000      -0.423875       -11.5342 
  47   1.0000      -0.405278       -11.0282 
  48   1.0000      -0.405265       -11.0278 
  49   1.0000      -0.400268       -10.8919 
  50   1.0000      -0.397501       -10.8165 
  51   1.0000      -0.384040       -10.4503 
  52   1.0000      -0.383952       -10.4479 
  53   1.0000      -0.358428        -9.7533 
  54   1.0000      -0.357955        -9.7405 
  55   1.0000      -0.357885        -9.7385 
  56   1.0000      -0.346439        -9.4271 
  57   1.0000      -0.312903        -8.5145 
  58   1.0000      -0.308938        -8.4066 
  59   1.0000      -0.308918        -8.4061 
  60   1.0000      -0.301331        -8.1996 
  61   1.0000      -0.301191        -8.1958 
  62   1.0000      -0.282088        -7.6760 
  63   1.0000      -0.279250        -7.5988 
  64   1.0000      -0.279223        -7.5980 
  65   1.0000      -0.275629        -7.5003 
  66   1.0000      -0.275576        -7.4988 
  67   1.0000      -0.242660        -6.6031 
  68   1.0000      -0.242584        -6.6011 
  69   1.0000      -0.238248        -6.4830 
  70   1.0000      -0.231041        -6.2870 
  71   1.0000      -0.228430        -6.2159 
  72   1.0000      -0.226295        -6.1578 
  73   1.0000      -0.226215        -6.1556 
  74   1.0000      -0.212441        -5.7808 
  75   1.0000      -0.212420        -5.7802 
  76   1.0000      -0.210118        -5.7176 
  77   1.0000      -0.197014        -5.3610 
  78   1.0000      -0.190609        -5.1867 
  79   1.0000      -0.190592        -5.1863 
  80   1.0000      -0.179324        -4.8797 
  81   1.0000      -0.179276        -4.8784 
  82   1.0000      -0.171395        -4.6639 
  83   1.0000      -0.166786        -4.5385 
  84   1.0000      -0.166717        -4.5366 
  85   1.0000      -0.161149        -4.3851 
  86   1.0000      -0.158656        -4.3172 
  87   1.0000      -0.156264        -4.2522 
  88   1.0000      -0.156173        -4.2497 
  89   1.0000      -0.146917        -3.9978 
  90   1.0000      -0.146906        -3.9975 
  91   1.0000      -0.135101        -3.6763 
  92   1.0000      -0.119921        -3.2632 
  93   1.0000      -0.119868        -3.2618 
  94   1.0000      -0.095619        -2.6019 
  95   1.0000      -0.095543        -2.5999 
  96   1.0000      -0.092614        -2.5202 
  97   1.0000      -0.077028        -2.0960 
  98   1.0000      -0.059095        -1.6080 
  99   1.0000      -0.056878        -1.5477 
 100   1.0000      -0.056508        -1.5377 
 101   1.0000       0.002077         0.0565 
 102   1.0000       0.047340         1.2882 
 103   1.0000       0.047575         1.2946 
 104   0.0000       0.096963         2.6385 
 105   0.0000       0.113816         3.0971 
 106   0.0000       0.116305         3.1648 
 107   0.0000       0.117291         3.1917 
 108   0.0000       0.124717         3.3937 
 109   0.0000       0.124971         3.4006 
 110   0.0000       0.126577         3.4443 
 111   0.0000       0.130631         3.5546 
 112   0.0000       0.131422         3.5762 
 113   0.0000       0.141035         3.8378 
 114   0.0000       0.142620         3.8809 
 115   0.0000       0.143828         3.9138 
 116   0.0000       0.150432         4.0935 
 117   0.0000       0.151302         4.1171 
 118   0.0000       0.153167         4.1679 
 119   0.0000       0.155427         4.2294 
 120   0.0000       0.179216         4.8767 
 121   0.0000       0.180132         4.9016 
 122   0.0000       0.184141         5.0107 
 123   0.0000       0.184645         5.0245 
 124   0.0000       0.185123         5.0375 
 125   0.0000       0.185572         5.0497 
 126   0.0000       0.193451         5.2641 
 127   0.0000       0.194108         5.2819 
 128   0.0000       0.195978         5.3328 
 129   0.0000       0.228165         6.2087 
 130   0.0000       0.228427         6.2158 
 131   0.0000       0.230108         6.2615 
 132   0.0000       0.239610         6.5201 
 133   0.0000       0.246531         6.7084 
 134   0.0000       0.249976         6.8022 
 135   0.0000       0.250187         6.8079 
 136   0.0000       0.252019         6.8578 
 137   0.0000       0.252427         6.8689 
 138   0.0000       0.275184         7.4881 
 139   0.0000       0.276928         7.5356 
 140   0.0000       0.277356         7.5472 
 141   0.0000       0.283536         7.7154 
 142   0.0000       0.284183         7.7330 
 143   0.0000       0.292163         7.9502 
 144   0.0000       0.292842         7.9686 
 145   0.0000       0.293132         7.9765 
 146   0.0000       0.296635         8.0719 
 147   0.0000       0.297346         8.0912 
 148   0.0000       0.297750         8.1022 
 149   0.0000       0.299357         8.1459 
 150   0.0000       0.308315         8.3897 
 151   0.0000       0.308645         8.3987 
 152   0.0000       0.310943         8.4612 
 153   0.0000       0.311955         8.4887 
 154   0.0000       0.314116         8.5475 
 155   0.0000       0.327545         8.9130 
 156   0.0000       0.331911         9.0318 
 157   0.0000       0.332283         9.0419 
 158   0.0000       0.340894         9.2762 
 159   0.0000       0.343766         9.3543 
 160   0.0000       0.344038         9.3618 
 161   0.0000       0.354929         9.6581 
 162   0.0000       0.355603         9.6764 
 163   0.0000       0.356989         9.7142 
 164   0.0000       0.366312         9.9679 
 165   0.0000       0.372325        10.1315 
 166   0.0000       0.373236        10.1563 
 167   0.0000       0.374088        10.1794 
 168   0.0000       0.381991        10.3945 
 169   0.0000       0.382152        10.3989 
 170   0.0000       0.382845        10.4177 
 171   0.0000       0.388991        10.5850 
 172   0.0000       0.389686        10.6039 
 173   0.0000       0.390111        10.6155 
 174   0.0000       0.393003        10.6941 
 175   0.0000       0.393344        10.7034 
 176   0.0000       0.394487        10.7345 
 177   0.0000       0.397620        10.8198 
 178   0.0000       0.397917        10.8279 
 179   0.0000       0.410814        11.1788 
 180   0.0000       0.411705        11.2031 
 181   0.0000       0.413609        11.2549 
 182   0.0000       0.427363        11.6291 
 183   0.0000       0.428170        11.6511 
 184   0.0000       0.428423        11.6580 
 185   0.0000       0.428988        11.6734 
 186   0.0000       0.429211        11.6794 
 187   0.0000       0.431717        11.7476 
 188   0.0000       0.433071        11.7845 
 189   0.0000       0.433530        11.7969 
 190   0.0000       0.437015        11.8918 
 191   0.0000       0.437925        11.9165 
 192   0.0000       0.438603        11.9350 
 193   0.0000       0.451100        12.2751 
 194   0.0000       0.460675        12.5356 
 195   0.0000       0.461205        12.5500 
 196   0.0000       0.467289        12.7156 
 197   0.0000       0.470876        12.8132 
 198   0.0000       0.472038        12.8448 
 199   0.0000       0.472888        12.8679 
 200   0.0000       0.482326        13.1248 
 201   0.0000       0.483247        13.1498 
 202   0.0000       0.498670        13.5695 
 203   0.0000       0.507900        13.8207 
 204   0.0000       0.509473        13.8635 
 205   0.0000       0.510971        13.9042 
 206   0.0000       0.515419        14.0253 
 207   0.0000       0.516891        14.0653 
 208   0.0000       0.527401        14.3513 
 209   0.0000       0.534506        14.5447 
 210   0.0000       0.536031        14.5861 
 211   0.0000       0.537709        14.6318 
 212   0.0000       0.541830        14.7439 
 213   0.0000       0.546698        14.8764 
 214   0.0000       0.548314        14.9204 
 215   0.0000       0.551201        14.9989 
 216   0.0000       0.558286        15.1917 
 217   0.0000       0.558769        15.2049 
 218   0.0000       0.559291        15.2191 
 219   0.0000       0.575390        15.6572 
 220   0.0000       0.579309        15.7638 
 221   0.0000       0.581071        15.8117 
 222   0.0000       0.590178        16.0595 
 223   0.0000       0.591128        16.0854 
 224   0.0000       0.600337        16.3360 
 225   0.0000       0.603067        16.4103 
 226   0.0000       0.604734        16.4557 
 227   0.0000       0.608013        16.5449 
 228   0.0000       0.616031        16.7630 
 229   0.0000       0.618382        16.8270 
 230   0.0000       0.619339        16.8531 
 231   0.0000       0.620085        16.8734 
 232   0.0000       0.621740        16.9184 
 233   0.0000       0.623434        16.9645 
 234   0.0000       0.624500        16.9935 
 235   0.0000       0.625154        17.0113 
 236   0.0000       0.634192        17.2573 
 237   0.0000       0.644654        17.5419 
 238   0.0000       0.645058        17.5529 
 239   0.0000       0.646887        17.6027 
 240   0.0000       0.657659        17.8958 
 241   0.0000       0.658211        17.9108 
 242   0.0000       0.664340        18.0776 
 243   0.0000       0.679077        18.4786 
 244   0.0000       0.697218        18.9723 
 245   0.0000       0.698929        19.0188 
 246   0.0000       0.702615        19.1191 
 247   0.0000       0.703543        19.1444 
 248   0.0000       0.708563        19.2810 
 249   0.0000       0.714006        19.4291 
 250   0.0000       0.714082        19.4312 
 251   0.0000       0.714569        19.4444 
 252   0.0000       0.730329        19.8733 
 253   0.0000       0.735980        20.0270 
 254   0.0000       0.737394        20.0655 
 255   0.0000       0.737932        20.0801 
 256   0.0000       0.744262        20.2524 
 257   0.0000       0.746455        20.3121 
 258   0.0000       0.758457        20.6387 
 259   0.0000       0.758911        20.6510 
 260   0.0000       0.761203        20.7134 
 261   0.0000       0.761297        20.7160 
 262   0.0000       0.762089        20.7375 
 263   0.0000       0.779554        21.2127 
 264   0.0000       0.812146        22.0996 
 265   0.0000       0.828617        22.5478 
 266   0.0000       0.852860        23.2075 
 267   0.0000       0.852968        23.2104 
 268   0.0000       0.856941        23.3186 
 269   0.0000       0.857625        23.3372 
 270   0.0000       0.896138        24.3851 
 271   0.0000       0.898753        24.4563 
 272   0.0000       0.906214        24.6593 
 273   0.0000       0.907999        24.7079 
 274   0.0000       0.916284        24.9333 
 275   0.0000       0.923412        25.1273 
 276   0.0000       0.924252        25.1502 
 277   0.0000       0.942518        25.6472 
 278   0.0000       0.950915        25.8757 
 279   0.0000       0.951746        25.8983 
 280   0.0000       0.956304        26.0224 
 281   0.0000       0.957805        26.0632 
 282   0.0000       0.958651        26.0862 
 283   0.0000       0.961511        26.1640 
 284   0.0000       0.965026        26.2597 
 285   0.0000       0.965363        26.2689 
 286   0.0000       0.984532        26.7905 
 287   0.0000       1.007571        27.4174 
 288   0.0000       1.010815        27.5057 
 289   0.0000       1.011422        27.5222 
 290   0.0000       1.016122        27.6501 
 291   0.0000       1.017320        27.6827 
 292   0.0000       1.018160        27.7055 
 293   0.0000       1.030004        28.0278 
 294   0.0000       1.030597        28.0440 
 295   0.0000       1.039697        28.2916 
 296   0.0000       1.040508        28.3137 
 297   0.0000       1.041616        28.3438 
 298   0.0000       1.046351        28.4727 
 299   0.0000       1.046906        28.4878 
 300   0.0000       1.054646        28.6984 
 301   0.0000       1.060298        28.8522 
 302   0.0000       1.060837        28.8668 
 303   0.0000       1.061210        28.8770 
 304   0.0000       1.067139        29.0383 
 305   0.0000       1.067433        29.0463 
 306   0.0000       1.070621        29.1331 
 307   0.0000       1.088472        29.6188 
 308   0.0000       1.095070        29.7984 
 309   0.0000       1.096825        29.8461 
 310   0.0000       1.125160        30.6172 
 311   0.0000       1.131260        30.7832 
 312   0.0000       1.131534        30.7906 
 313   0.0000       1.132512        30.8172 
 314   0.0000       1.135393        30.8956 
 315   0.0000       1.135986        30.9118 
 316   0.0000       1.139991        31.0207 
 317   0.0000       1.141200        31.0536 
 318   0.0000       1.142117        31.0786 
 319   0.0000       1.146477        31.1972 
 320   0.0000       1.147569        31.2269 
 321   0.0000       1.148692        31.2575 
 322   0.0000       1.149255        31.2728 
 323   0.0000       1.153484        31.3879 
 324   0.0000       1.153639        31.3921 
 325   0.0000       1.154561        31.4172 
 326   0.0000       1.155589        31.4452 
 327   0.0000       1.160644        31.5827 
 328   0.0000       1.161278        31.6000 
 329   0.0000       1.170397        31.8481 
 330   0.0000       1.204137        32.7662 
 331   0.0000       1.205078        32.7918 
 332   0.0000       1.205429        32.8014 
 333   0.0000       1.206440        32.8289 
 334   0.0000       1.209025        32.8992 
 335   0.0000       1.209346        32.9080 
 336   0.0000       1.214239        33.0411 
 337   0.0000       1.214878        33.0585 
 338   0.0000       1.215449        33.0741 
 339   0.0000       1.216442        33.1011 
 340   0.0000       1.233466        33.5643 
 341   0.0000       1.233749        33.5720 
 342   0.0000       1.249603        34.0034 
 343   0.0000       1.270589        34.5745 
 344   0.0000       1.279467        34.8161 
 345   0.0000       1.279923        34.8285 
 346   0.0000       1.282396        34.8958 
 347   0.0000       1.290442        35.1147 
 348   0.0000       1.294158        35.2158 
 349   0.0000       1.295032        35.2396 
 350   0.0000       1.307140        35.5691 
 351   0.0000       1.308436        35.6044 
 352   0.0000       1.313559        35.7438 
 353   0.0000       1.327843        36.1324 
 354   0.0000       1.330593        36.2073 
 355   0.0000       1.331132        36.2219 
 356   0.0000       1.368309        37.2336 
 357   0.0000       1.368649        37.2428 
 358   0.0000       1.381954        37.6049 
 359   0.0000       1.384753        37.6810 
 360   0.0000       1.385490        37.7011 
 361   0.0000       1.402941        38.1760 
 362   0.0000       1.403794        38.1992 
 363   0.0000       1.405064        38.2337 
 364   0.0000       1.412017        38.4229 
 365   0.0000       1.428873        38.8816 
 366   0.0000       1.429637        38.9024 
 367   0.0000       1.438045        39.1312 
 368   0.0000       1.440559        39.1996 
 369   0.0000       1.440903        39.2090 
 370   0.0000       1.455052        39.5940 
 371   0.0000       1.455835        39.6153 
 372   0.0000       1.464252        39.8443 
 373   0.0000       1.485161        40.4133 
 374   0.0000       1.487144        40.4672 
 375   0.0000       1.487508        40.4772 
 376   0.0000       1.496635        40.7255 
 377   0.0000       1.497453        40.7478 
 378   0.0000       1.498292        40.7706 
 379   0.0000       1.505802        40.9749 
 380   0.0000       1.507213        41.0134 
 381   0.0000       1.508035        41.0357 
 382   0.0000       1.511640        41.1338 
 383   0.0000       1.518062        41.3086 
 384   0.0000       1.518960        41.3330 
 385   0.0000       1.530788        41.6549 
 386   0.0000       1.532777        41.7090 
 387   0.0000       1.533353        41.7247 
 388   0.0000       1.539784        41.8996 
 389   0.0000       1.540518        41.9196 
 390   0.0000       1.540920        41.9306 
 391   0.0000       1.553831        42.2819 
 392   0.0000       1.565042        42.5870 
 393   0.0000       1.565472        42.5987 
 394   0.0000       1.566352        42.6226 
 395   0.0000       1.571450        42.7613 
 396   0.0000       1.571985        42.7759 
 397   0.0000       1.583352        43.0852 
 398   0.0000       1.598591        43.4999 
 399   0.0000       1.598906        43.5084 
 400   0.0000       1.611828        43.8601 
 401   0.0000       1.615616        43.9631 
 402   0.0000       1.616297        43.9817 
 403   0.0000       1.621146        44.1136 
 404   0.0000       1.641922        44.6790 
 405   0.0000       1.645384        44.7732 
 406   0.0000       1.650970        44.9252 
 407   0.0000       1.651586        44.9419 
 408   0.0000       1.662383        45.2357 
 409   0.0000       1.662773        45.2463 
 410   0.0000       1.668441        45.4006 
 411   0.0000       1.668624        45.4056 
 412   0.0000       1.686236        45.8848 
 413   0.0000       1.686576        45.8941 
 414   0.0000       1.687952        45.9315 
 415   0.0000       1.688072        45.9348 
 416   0.0000       1.688327        45.9417 
 417   0.0000       1.708034        46.4780 
 418   0.0000       1.731503        47.1166 
 419   0.0000       1.731815        47.1251 
 420   0.0000       1.736076        47.2410 
 421   0.0000       1.744465        47.4693 
 422   0.0000       1.745142        47.4877 
 423   0.0000       1.750010        47.6202 
 424   0.0000       1.752731        47.6942 
 425   0.0000       1.752881        47.6983 
 426   0.0000       1.763268        47.9810 
 427   0.0000       1.763561        47.9889 
 428   0.0000       1.781134        48.4671 
 429   0.0000       1.801203        49.0132 
 430   0.0000       1.801920        49.0327 
 431   0.0000       1.806921        49.1688 
 432   0.0000       1.806984        49.1705 
 433   0.0000       1.812428        49.3187 
 434   0.0000       1.812575        49.3227 
 435   0.0000       1.819380        49.5079 
 436   0.0000       1.819772        49.5185 
 437   0.0000       1.825390        49.6714 
 438   0.0000       1.832464        49.8639 
 439   0.0000       1.832718        49.8708 
 440   0.0000       1.835636        49.9502 
 441   0.0000       1.840420        50.0804 
 442   0.0000       1.841168        50.1007 
 443   0.0000       1.851213        50.3741 
 444   0.0000       1.855748        50.4975 
 445   0.0000       1.855997        50.5042 
 446   0.0000       1.857603        50.5479 
 447   0.0000       1.858234        50.5651 
 448   0.0000       1.858726        50.5785 
 449   0.0000       1.870178        50.8901 
 450   0.0000       1.905651        51.8554 
 451   0.0000       1.906070        51.8668 
 452   0.0000       1.907329        51.9011 
 453   0.0000       1.926091        52.4116 
 454   0.0000       1.930713        52.5374 
 455   0.0000       1.933185        52.6046 
 456   0.0000       1.939507        52.7767 
 457   0.0000       1.940102        52.7929 
 458   0.0000       1.943830        52.8943 
 459   0.0000       1.944495        52.9124 
 460   0.0000       1.950921        53.0873 
 461   0.0000       1.951130        53.0930 
 462   0.0000       1.967205        53.5304 
 463   0.0000       1.969440        53.5912 
 464   0.0000       1.971199        53.6390 
 465   0.0000       1.971509        53.6475 
 466   0.0000       1.993187        54.2374 
 467   0.0000       1.997392        54.3518 
 468   0.0000       1.997490        54.3545 
 469   0.0000       2.007277        54.6208 
 470   0.0000       2.007438        54.6252 
 471   0.0000       2.015351        54.8405 
 472   0.0000       2.017201        54.8908 
 473   0.0000       2.017534        54.8999 
 474   0.0000       2.024063        55.0775 
 475   0.0000       2.032793        55.3151 
 476   0.0000       2.033127        55.3242 
 477   0.0000       2.039707        55.5032 
 478   0.0000       2.040095        55.5138 
 479   0.0000       2.043475        55.6058 
 480   0.0000       2.052721        55.8574 
 481   0.0000       2.053291        55.8729 
 482   0.0000       2.069171        56.3050 
 483   0.0000       2.081919        56.6519 
 484   0.0000       2.084754        56.7290 
 485   0.0000       2.086818        56.7852 
 486   0.0000       2.087343        56.7995 
 487   0.0000       2.105718        57.2995 
 488   0.0000       2.106144        57.3111 
 489   0.0000       2.110578        57.4317 
 490   0.0000       2.118634        57.6510 
 491   0.0000       2.118815        57.6559 
 492   0.0000       2.124639        57.8144 
 493   0.0000       2.126113        57.8545 
 494   0.0000       2.126420        57.8628 
 495   0.0000       2.151227        58.5379 
 496   0.0000       2.162969        58.8574 
 497   0.0000       2.179091        59.2961 
 498   0.0000       2.179518        59.3077 
 499   0.0000       2.193456        59.6870 
 500   0.0000       2.209558        60.1251 
 501   0.0000       2.213393        60.2295 
 502   0.0000       2.213826        60.2413 
 503   0.0000       2.224066        60.5199 
 504   0.0000       2.224873        60.5419 
 505   0.0000       2.225042        60.5465 
 506   0.0000       2.229442        60.6662 
 507   0.0000       2.229754        60.6747 
 508   0.0000       2.250462        61.2382 
 509   0.0000       2.250748        61.2460 
 510   0.0000       2.274490        61.8920 
 511   0.0000       2.275075        61.9079 
 512   0.0000       2.290761        62.3348 
 513   0.0000       2.296247        62.4841 
 514   0.0000       2.307737        62.7967 
 515   0.0000       2.308045        62.8051 
 516   0.0000       2.314325        62.9760 
 517   0.0000       2.326555        63.3088 
 518   0.0000       2.348038        63.8934 
 519   0.0000       2.348118        63.8955 
 520   0.0000       2.358973        64.1909 
 521   0.0000       2.359437        64.2035 
 522   0.0000       2.359764        64.2124 
 523   0.0000       2.395323        65.1801 
 524   0.0000       2.395822        65.1936 
 525   0.0000       2.417929        65.7952 
 526   0.0000       2.423859        65.9566 
 527   0.0000       2.424033        65.9613 
 528   0.0000       2.426533        66.0293 
 529   0.0000       2.435557        66.2749 
 530   0.0000       2.436021        66.2875 
 531   0.0000       2.446351        66.5686 
 532   0.0000       2.456819        66.8534 
 533   0.0000       2.456996        66.8582 
 534   0.0000       2.468108        67.1606 
 535   0.0000       2.468610        67.1743 
 536   0.0000       2.474164        67.3254 
 537   0.0000       2.479524        67.4713 
 538   0.0000       2.511323        68.3366 
 539   0.0000       2.511983        68.3545 
 540   0.0000       2.522455        68.6395 
 541   0.0000       2.550349        69.3985 
 542   0.0000       2.564759        69.7906 
 543   0.0000       2.565391        69.8078 
 544   0.0000       2.584266        70.3215 
 545   0.0000       2.588238        70.4295 
 546   0.0000       2.600025        70.7503 
 547   0.0000       2.600378        70.7599 
 548   0.0000       2.616758        71.2056 
 549   0.0000       2.617411        71.2234 
 550   0.0000       2.632988        71.6472 
 551   0.0000       2.633264        71.6548 
 552   0.0000       2.633523        71.6618 
 553   0.0000       2.671610        72.6982 
 554   0.0000       2.682824        73.0034 
 555   0.0000       2.694757        73.3281 
 556   0.0000       2.694871        73.3312 
 557   0.0000       2.739694        74.5509 
 558   0.0000       2.745338        74.7044 
 559   0.0000       2.747895        74.7740 
[...]
 521( 0) :     2.359437 a.u.    64.204 eV
 522( 0) :     2.359766 a.u.    64.212 eV
 523( 0) :     2.395321 a.u.    65.180 eV
 524( 0) :     2.395825 a.u.    65.194 eV
 525( 0) :     2.417931 a.u.    65.795 eV
 526( 0) :     2.423861 a.u.    65.957 eV
 527( 0) :     2.424036 a.u.    65.961 eV
 528( 0) :     2.426537 a.u.    66.029 eV
 529( 0) :     2.435558 a.u.    66.275 eV
 530( 0) :     2.436022 a.u.    66.288 eV
 531( 0) :     2.446352 a.u.    66.569 eV
 532( 0) :     2.456822 a.u.    66.854 eV
 533( 0) :     2.456999 a.u.    66.858 eV
 534( 0) :     2.468111 a.u.    67.161 eV
 535( 0) :     2.468613 a.u.    67.174 eV
 536( 0) :     2.474168 a.u.    67.326 eV
 537( 0) :     2.479523 a.u.    67.471 eV
 538( 0) :     2.511324 a.u.    68.337 eV
 539( 0) :     2.511985 a.u.    68.355 eV
 540( 0) :     2.522454 a.u.    68.639 eV
 541( 0) :     2.550352 a.u.    69.399 eV
 542( 0) :     2.564758 a.u.    69.791 eV
 543( 0) :     2.565388 a.u.    69.808 eV
 544( 0) :     2.584271 a.u.    70.322 eV
 545( 0) :     2.588231 a.u.    70.429 eV
 546( 0) :     2.600024 a.u.    70.750 eV
 547( 0) :     2.600379 a.u.    70.760 eV
 548( 0) :     2.616757 a.u.    71.206 eV
 549( 0) :     2.617409 a.u.    71.223 eV
 550( 0) :     2.632989 a.u.    71.647 eV
 551( 0) :     2.633263 a.u.    71.655 eV
 552( 0) :     2.633524 a.u.    71.662 eV
 553( 0) :     2.671610 a.u.    72.698 eV
 554( 0) :     2.682825 a.u.    73.003 eV
 555( 0) :     2.694756 a.u.    73.328 eV
 556( 0) :     2.694871 a.u.    73.331 eV
 557( 0) :     2.739698 a.u.    74.551 eV
 558( 0) :     2.745340 a.u.    74.704 eV
 559( 0) :     2.747899 a.u.    74.774 eV
 560( 0) :     2.748007 a.u.    74.777 eV
 561( 0) :     2.757916 a.u.    75.047 eV
 562( 0) :     2.758147 a.u.    75.053 eV
 563( 0) :     2.768269 a.u.    75.328 eV
 564( 0) :     2.768519 a.u.    75.335 eV
 565( 0) :     2.777349 a.u.    75.576 eV
 566( 0) :     2.785146 a.u.    75.788 eV
 567( 0) :     2.785501 a.u.    75.797 eV
 568( 0) :     2.791181 a.u.    75.952 eV
 569( 0) :     2.795921 a.u.    76.081 eV
 570( 0) :     2.796480 a.u.    76.096 eV
 571( 0) :     2.798500 a.u.    76.151 eV
 572( 0) :     2.819085 a.u.    76.711 eV
 573( 0) :     2.819329 a.u.    76.718 eV
 574( 0) :     2.856897 a.u.    77.740 eV
 575( 0) :     2.859673 a.u.    77.816 eV
 576( 0) :     2.860272 a.u.    77.832 eV
 577( 0) :     2.875793 a.u.    78.254 eV
 578( 0) :     2.875922 a.u.    78.258 eV
 579( 0) :     2.910630 a.u.    79.202 eV
 580( 0) :     2.911368 a.u.    79.222 eV
 581( 0) :     2.922653 a.u.    79.529 eV
 582( 0) :     2.922964 a.u.    79.538 eV
 583( 0) :     2.925095 a.u.    79.596 eV
 584( 0) :     2.934249 a.u.    79.845 eV
 585( 0) :     2.963080 a.u.    80.630 eV
 586( 0) :     2.963997 a.u.    80.654 eV
 587( 0) :     2.975429 a.u.    80.966 eV
 588( 0) :     2.986472 a.u.    81.266 eV
 589( 0) :     2.986919 a.u.    81.278 eV
 590( 0) :     3.063128 a.u.    83.352 eV
 591( 0) :     3.063358 a.u.    83.358 eV
 592( 0) :     3.067177 a.u.    83.462 eV
 593( 0) :     3.140859 a.u.    85.467 eV
 594( 0) :     3.799674 a.u.   103.394 eV
 595( 0) :     3.805628 a.u.   103.556 eV
 596( 0) :     3.835174 a.u.   104.360 eV
 597( 0) :     3.850322 a.u.   104.773 eV
 598( 0) :     3.885702 a.u.   105.735 eV
 599( 0) :     3.886394 a.u.   105.754 eV
 600( 0) :     5.167382 a.u.   140.612 eV
 601( 0) :     5.167619 a.u.   140.618 eV
 602( 0) :     5.176416 a.u.   140.857 eV
 603( 0) :     5.181914 a.u.   141.007 eV
 604( 0) :     5.182470 a.u.   141.022 eV
 605( 0) :     5.184987 a.u.   141.091 eV
 606( 0) :     5.280466 a.u.   143.689 eV
 607( 0) :     5.280517 a.u.   143.690 eV
 608( 0) :     5.285589 a.u.   143.828 eV
 609( 0) :     5.287549 a.u.   143.882 eV
 610( 0) :     5.287645 a.u.   143.884 eV
 611( 0) :     5.289776 a.u.   143.942 eV
 612( 0) :     5.298246 a.u.   144.173 eV
 613( 0) :     5.298562 a.u.   144.181 eV
 614( 0) :     5.301101 a.u.   144.250 eV
 615( 0) :     5.319030 a.u.   144.738 eV
 616( 0) :     5.319251 a.u.   144.744 eV
 617( 0) :     5.338351 a.u.   145.264 eV
 618( 0) :     5.371378 a.u.   146.163 eV
 619( 0) :     5.372080 a.u.   146.182 eV
 620( 0) :     5.383335 a.u.   146.488 eV
 621( 0) :     5.399232 a.u.   146.921 eV
 622( 0) :     5.399400 a.u.   146.925 eV
 623( 0) :     5.402915 a.u.   147.021 eV
 624( 0) :     5.416782 a.u.   147.398 eV
 625( 0) :     5.455718 a.u.   148.458 eV
 626( 0) :     5.455963 a.u.   148.464 eV
 627( 0) :     5.456221 a.u.   148.471 eV
 628( 0) :     5.486335 a.u.   149.291 eV
 629( 0) :     5.487194 a.u.   149.314 eV
 630( 0) :     5.487470 a.u.   149.322 eV
 631( 0) :     5.506847 a.u.   149.849 eV
 632( 0) :     5.520032 a.u.   150.208 eV
 633( 0) :     5.521333 a.u.   150.243 eV
 634( 0) :     5.546037 a.u.   150.915 eV
 635( 0) :     5.546174 a.u.   150.919 eV
 636( 0) :     5.557339 a.u.   151.223 eV
 637( 0) :     5.584498 a.u.   151.962 eV
 638( 0) :     5.587395 a.u.   152.041 eV
 639( 0) :     5.587788 a.u.   152.051 eV
 640( 0) :     5.646445 a.u.   153.648 eV
 641( 0) :     5.647338 a.u.   153.672 eV
 642( 0) :     5.669304 a.u.   154.270 eV
 643( 0) :     5.729572 a.u.   155.910 eV
 644( 0) :     5.730510 a.u.   155.935 eV
 645( 0) :     5.745633 a.u.   156.347 eV
 646( 0) :     5.753292 a.u.   156.555 eV
 647( 0) :     5.758601 a.u.   156.699 eV
 648( 0) :     5.759036 a.u.   156.711 eV
 649( 0) :     5.839222 a.u.   158.893 eV
 650( 0) :     5.839289 a.u.   158.895 eV
 651( 0) :     5.894722 a.u.   160.404 eV
 652( 0) :     5.990169 a.u.   163.001 eV
 653( 0) :     5.990275 a.u.   163.004 eV
 654( 0) :     6.074710 a.u.   165.301 eV
 655( 0) :     6.075071 a.u.   165.311 eV
 656( 0) :     6.085354 a.u.   165.591 eV
 657( 0) :     6.096976 a.u.   165.907 eV
 658( 0) :     6.106913 a.u.   166.178 eV
 659( 0) :     6.107285 a.u.   166.188 eV
 660( 0) :     6.115016 a.u.   166.398 eV
 661( 0) :     6.115051 a.u.   166.399 eV
 662( 0) :     6.121964 a.u.   166.587 eV
 663( 0) :     7.460456 a.u.   203.009 eV
 664( 0) :    29.649973 a.u.   806.817 eV
 665( 0) :    29.717736 a.u.   808.661 eV
 666( 0) :    29.717933 a.u.   808.666 eV
 667( 0) :    29.782798 a.u.   810.431 eV
 668( 0) :    29.793282 a.u.   810.716 eV
 669( 0) :    29.793406 a.u.   810.720 eV
 670( 0) :    29.832365 a.u.   811.780 eV
 671( 0) :    30.009905 a.u.   816.611 eV
 672( 0) :    30.010466 a.u.   816.626 eV
 673( 0) :    30.019220 a.u.   816.865 eV
 674( 0) :    30.035459 a.u.   817.306 eV
 675( 0) :    30.041161 a.u.   817.462 eV
 676( 0) :    30.041408 a.u.   817.468 eV
 677( 0) :    30.108540 a.u.   819.295 eV
 678( 0) :    30.108650 a.u.   819.298 eV
 679( 0) :    30.148960 a.u.   820.395 eV
 680( 0) :    30.240249 a.u.   822.879 eV
 681( 0) :    30.240302 a.u.   822.880 eV
 682( 0) :    30.295801 a.u.   824.391 eV
 683( 0) :    30.295963 a.u.   824.395 eV
 684( 0) :    30.319243 a.u.   825.029 eV
 685( 0) :    30.321313 a.u.   825.085 eV
 686( 0) :    30.329301 a.u.   825.302 eV
 687( 0) :    30.329448 a.u.   825.306 eV
 688( 0) :    30.333860 a.u.   825.426 eV
 689( 0) :    30.338881 a.u.   825.563 eV
 690( 0) :    30.338920 a.u.   825.564 eV
 691( 0) :    36.673639 a.u.   997.940 eV
 692( 0) :    36.681735 a.u.   998.161 eV
 693( 0) :    36.681914 a.u.   998.166 eV
 694( 0) :    36.764075 a.u.  1000.401 eV
 695( 0) :    36.766107 a.u.  1000.457 eV
 696( 0) :    36.774642 a.u.  1000.689 eV
 697( 0) :    36.863004 a.u.  1003.093 eV
 698( 0) :    36.878798 a.u.  1003.523 eV
 699( 0) :    36.879004 a.u.  1003.529 eV
 700( 0) :    36.893318 a.u.  1003.918 eV
 701( 0) :    36.893452 a.u.  1003.922 eV
 702( 0) :    36.893502 a.u.  1003.923 eV
 703( 0) :    36.894551 a.u.  1003.952 eV
 704( 0) :    36.905557 a.u.  1004.251 eV
 705( 0) :    36.905894 a.u.  1004.260 eV
 706( 0) :    36.909066 a.u.  1004.347 eV
 707( 0) :    36.909179 a.u.  1004.350 eV
 708( 0) :    36.939147 a.u.  1005.165 eV
 709( 0) :    36.962142 a.u.  1005.791 eV
 710( 0) :    36.962204 a.u.  1005.793 eV
 711( 0) :    36.978874 a.u.  1006.246 eV
 712( 0) :    36.987482 a.u.  1006.481 eV
 713( 0) :    37.012497 a.u.  1007.161 eV
 714( 0) :    37.012827 a.u.  1007.170 eV
 715( 0) :    37.015759 a.u.  1007.250 eV
 716( 0) :    37.026736 a.u.  1007.549 eV
 717( 0) :    37.032260 a.u.  1007.699 eV
 718( 0) :    37.105305 a.u.  1009.687 eV
 719( 0) :    37.105817 a.u.  1009.701 eV
 720( 0) :    37.111735 a.u.  1009.862 eV
 721( 0) :    37.245601 a.u.  1013.504 eV
 722( 0) :    37.254018 a.u.  1013.733 eV
 723( 0) :    37.269644 a.u.  1014.159 eV
 724( 0) :    37.358405 a.u.  1016.574 eV
 725( 0) :    37.370932 a.u.  1016.915 eV
 726( 0) :    37.371388 a.u.  1016.927 eV
 727( 0) :    41.163225 a.u.  1120.108 eV
-------
TIMINGS
-------

Total SCF time: 0 days 0 hours 1 min 7 sec 

Total time                  ....      67.852 sec
Sum of individual times     ....      64.388 sec  ( 94.9%)

Fock matrix formation       ....      41.813 sec  ( 61.6%)
  Split-RI-J                ....      24.751 sec  ( 59.2% of F)
  XC integration            ....      10.182 sec  ( 24.4% of F)
    Basis function eval.    ....       0.373 sec  (  3.7% of XC)
    Density eval.           ....       0.995 sec  (  9.8% of XC)
    XC-Functional eval.     ....       0.053 sec  (  0.5% of XC)
    XC-Potential eval.      ....       1.392 sec  ( 13.7% of XC)
Diagonalization             ....       8.270 sec  ( 12.2%)
Density matrix formation    ....       0.634 sec  (  0.9%)
Population analysis         ....       4.099 sec  (  6.0%)
Initial guess               ....       0.785 sec  (  1.2%)
Orbital Transformation      ....       0.000 sec  (  0.0%)
Orbital Orthonormalization  ....       0.000 sec  (  0.0%)
DIIS solution               ....       5.849 sec  (  8.6%)
Grid generation             ....       2.937 sec  (  4.3%)

-------------------------   --------------------
FINAL SINGLE POINT ENERGY     -1103.167976202904
-------------------------   --------------------

   --->>> SOC part of D-tensor requested, so NeedSOC=true

                            ***************************************
                            *     ORCA property calculations      *
                            ***************************************

                                    ---------------------
                                    Active property flags
                                    ---------------------
   (+) Dipole Moment
   (+) D-tensor
   (+) Spin-Orbit Integrals are needed


------------------------------------------------------------------------------
                       ORCA ELECTRIC PROPERTIES CALCULATION
------------------------------------------------------------------------------

Dipole Moment Calculation                       ... on
Quadrupole Moment Calculation                   ... off
Polarizability Calculation                      ... off
GBWName                                         ... zfs.gbw
Electron density file                           ... zfs.scfp
The origin for moment calculation is the CENTER OF MASS  = (-0.000026,  0.000048 -3.167486)

-------------
DIPOLE MOMENT
-------------
                                X             Y             Z
Electronic contribution:      0.00680       0.00026       1.06654
Nuclear contribution   :      0.00146      -0.00352      -0.32886
                        -----------------------------------------
Total Dipole Moment    :      0.00827      -0.00326       0.73768
                        -----------------------------------------
Magnitude (a.u.)       :      0.73773
Magnitude (Debye)      :      1.87517



--------------------
Rotational spectrum 
--------------------
 
Rotational constants in cm-1:     0.009246     0.009141     0.009141 
Rotational constants in MHz :   277.183097   274.048600   274.045280 

 Dipole components along the rotational axes: 
x,y,z [a.u.] :     0.737685    -0.006026    -0.005952 
x,y,z [Debye]:     1.875047    -0.015318    -0.015128 

 


           ************************************************************
           *        Program running with 72 parallel MPI-processes    *
           *              working on a shared directory               *
           ************************************************************
------------------------------------------------------------------------------
                         ORCA SPIN-ORBIT COUPLING CALCULATION
------------------------------------------------------------------------------

GBW file                                    ... zfs.gbw
Input density                               ... zfs.scfp
Output integrals                            ... zfs
Operator type                               ... Mean-field/Effective potential
   One-Electron Terms                       ... 1
   Coulomb Contribution                     ... 2
   Exchange Contribution                    ... 3
   Correlation Contribution                 ... 0
   Maximum number of centers                ... 4
Setting up the integration grid             ... done
Evaluating density on the grid              ... (NumEl=  205.996039) done
Evaluating Coulomb term semi-analytically   ... done
One-Center Exchange (+SOO)                  ... done
Evaluating the spin-orbit operator          ... done
Total time for SOC: 68.083


           ************************************************************
           *        Program running with 72 parallel MPI-processes    *
           *              working on a shared directory               *
           ************************************************************
------------------------------------------------------------------------------
                                ORCA EPR/NMR CALCULATION
------------------------------------------------------------------------------

GBWName                      ... zfs.gbw
Electron density file        ... zfs.scfp
Spin density file            ... zfs.scfr
Spin-orbit integrals         ... zfs
Multiplicity                 ... 3
g-tensor                     ... 0
NMR chemical shifts          ... 0
D-tensor                     ... spin-spin and spin-orbit
D(SS)-algorithm              ... spin-density from UNOs
D(SOC)-algorithm             ... CP (=Coupled-perturbed)
Active orbitals for UNO spin density= 102 .. 103

Starting the spin-spin zero-field-splitting computation (UNO)...
                        ... done with spin-spin calculation

Starting the spin-orbit zero-field-splitting computation (CP)...
Transforming integrals                       ... Max(Pert)=   5.6135e-06
Warning: Perturbation too small - adjusting
Transforming integrals                       ... Max(Pert)=   6.1131e-05
Warning: Perturbation too small - adjusting
Transforming integrals                       ... Max(Pert)=   6.6571e-04
Warning: Perturbation too small - adjusting
Transforming integrals                       ... Max(Pert)=   7.2496e-03
done
    ... no HF exchange - skipping linear equations
ZFS-Tensor - using the prefactors
   -1/(4S**2) for same spin
    1/(2*S*(2*S-1)) for alpha->beta
    1/((S+1)*(2*S+1)) for beta->alpha
                        ... done with spin-orbit calculation

---------------------------
ZERO-FIELD-SPLITTING TENSOR
---------------------------

raw-matrix : 
   0.019979     0.000195    -0.000018  
   0.000195     0.019881     0.000011  
  -0.000018     0.000011     0.087172  

Tensor is right-handed
diagonalized D matrix : 
   0.019729     0.020131     0.087172  

  -0.615519     0.788122     0.000261  
   0.788122     0.615519    -0.000156  
  -0.000284     0.000109    -1.000000  


Direction X=1 Y=0 Z=2
D   =     0.067242  cm**-1
E/D =     0.002987

SPIN-SPIN-PART
                   0          1          2    
      0      -0.021865   0.000193  -0.000016
      1       0.000193  -0.021948  -0.000004
      2      -0.000016  -0.000004   0.043813
Exchange and Coulomb parts of SS (raw)
Coulomb
                   0          1          2    
      0      -0.011275   0.000564   0.000034
      1       0.000564  -0.020964  -0.000031
      2       0.000034  -0.000031   0.032239
Exchange
                   0          1          2    
      0      -0.010590  -0.000371  -0.000050
      1      -0.000371  -0.000983   0.000027
      2      -0.000050   0.000027   0.011574
One-, two-, three- and four-center SS contributions (raw)
One-Center            (AA|AA):
                   0          1          2    
      0      -0.001430  -0.000068   0.000092
      1      -0.000068  -0.001602   0.000050
      2       0.000092   0.000050   0.003032
Two-Center-Coulomb    (AA|BB):
                   0          1          2    
      0      -0.381832  -0.034388  -0.003973
      1      -0.034388  -0.313402   0.001513
      2      -0.003973   0.001513   0.695234
Two-Center-Exchange   (AB|BA):
                   0          1          2    
      0      -0.015371   0.000939   0.000216
      1       0.000939  -0.013724  -0.000520
      2       0.000216  -0.000520   0.029095
Two-Center-hybrid     (AA|AB):
                   0          1          2    
      0       0.001977   0.000318  -0.000883
      1       0.000318   0.000936  -0.000184
      2      -0.000883  -0.000184  -0.002913
Three-Center-Coulomb  (AA|BC):
                   0          1          2    
      0       0.658559   0.060656   0.005568
      1       0.060656   0.533920  -0.006024
      2       0.005568  -0.006024  -1.192480
Three-Center-Exchange (AB|AC):
                   0          1          2    
      0      -0.003311  -0.000109   0.001092
      1      -0.000109  -0.005094   0.001813
      2       0.001092   0.001813   0.008405
Four-Center           (AB|CD):
                   0          1          2    
      0      -0.280457  -0.027154  -0.002128
      1      -0.027154  -0.222982   0.003347
      2      -0.002128   0.003347   0.503440
ALPHA-PART
                   0          1          2    
      0      -0.113517   0.000005   0.000006
      1       0.000005  -0.113509  -0.000007
      2       0.000006  -0.000007  -0.108848
BETA-PART
                   0          1          2    
      0      -0.111419   0.000009   0.000016
      1       0.000009  -0.111420  -0.000007
      2       0.000016  -0.000007  -0.104876
ALPHA->BETA-PART
                   0          1          2    
      0       0.230166  -0.000009  -0.000020
      1      -0.000009   0.230143   0.000028
      2      -0.000020   0.000028   0.222866
BETA->ALPHA-PART
                   0          1          2    
      0       0.036613  -0.000003  -0.000004
      1      -0.000003   0.036615   0.000001
      2      -0.000004   0.000001   0.034218

Individual contributions (in cm**-1)
                                   D         E
SPIN-SPIN                  :   0.06572    0.00020
  Exchange vs Coulomb
  Coulomb                  :   0.04836    0.00172
  Exchange                 :   0.01736   -0.00152
  One through four center contributions:
  1-center                 :   0.00455   -0.00005
  2-center-Coulomb         :   1.04286   -0.04165
  2-center-Exchange        :   0.04364    0.00071
  2-center-Hybrid          :  -0.00437    0.00044
  3-center-Coulomb         :  -1.78873    0.07394
  3-center-Exchange        :   0.01261    0.00011
  4-center                 :   0.75516   -0.03331
SPIN-ORBIT                 :   0.00152    0.00000
SOMO->VMO  (alpha->alpha)  :   0.00466    0.00000
DOMO->SOMO (beta ->beta )  :   0.00654    0.00001
SOMO->SOMO (alpha->beta )  :  -0.00729   -0.00001
DOMO->VMO  (beta ->alpha)  :  -0.00240   -0.00000


Timings for individual modules:

Sum of individual times         ...      266.110 sec (=   4.435 min)
GTO integral calculation        ...       13.855 sec (=   0.231 min)   5.2 %
Spin-Orbit-Coupling Matrices    ...       68.073 sec (=   1.135 min)  25.6 %
SCF iterations                  ...       77.185 sec (=   1.286 min)  29.0 %
EPR/NMR calculation             ...      106.997 sec (=   1.783 min)  40.2 %
                             ****ORCA TERMINATED NORMALLY****
TOTAL RUN TIME: 0 days 0 hours 4 minutes 38 seconds 995 msec
