
     Program PWSCF v.6.1 (svn rev. 13369) starts on  9Mar2020 at 17:18:46 

     This program is part of the open-source Quantum ESPRESSO suite
     for quantum simulation of materials; please cite
         "P. Giannozzi et al., J. Phys.:Condens. Matter 21 395502 (2009);
          URL http://www.quantum-espresso.org", 
     in publications or presentations arising from this work. More details at
     http://www.quantum-espresso.org/quote

     Parallel version (MPI), running on   360 processors
     K-points division:     npool     =      10
     R & G space division:  proc/nbgrp/npool/nimage =      36
     Reading input from relax.in

     Current dimensions of program PWSCF are:
     Max number of different atomic species (ntypx) = 10
     Max number of k-points (npk) =  40000
     Max angular momentum in pseudopotentials (lmaxx) =  3

     Subspace diagonalization in iterative solution of the eigenvalue problem:
     one sub-group per band group will be used
     scalapack distributed-memory algorithm (size of sub-group:  6*  6 procs)

 
     Parallelization info
     --------------------
     sticks:   dense  smooth     PW     G-vecs:    dense   smooth      PW
     Min         422     422    109                35974    35974    4737
     Max         423     423    110                35979    35979    4740
     Sum       15199   15199   3931              1295129  1295129  170579
 


     bravais-lattice index     =            0
     lattice parameter (alat)  =      33.2346  a.u.
     unit-cell volume          =   27114.5224 (a.u.)^3
     number of atoms/cell      =           97
     number of atomic types    =            3
     number of electrons       =       396.00 (up: 199.00, down: 197.00)
     number of Kohn-Sham states=          220
     kinetic-energy cutoff     =      50.0000  Ry
     charge density cutoff     =     200.0000  Ry
     convergence threshold     =      1.0E-08
     mixing beta               =       0.7000
     number of iterations used =            8  plain     mixing
     Exchange-correlation      = PBE ( 1  4  3  4 0 0)
     nstep                     =           50


     celldm(1)=  33.234606  celldm(2)=   0.000000  celldm(3)=   0.000000
     celldm(4)=   0.000000  celldm(5)=   0.000000  celldm(6)=   0.000000

     crystal axes: (cart. coord. in units of alat)
               a(1) = (   1.000000   0.000000   0.000000 )  
               a(2) = (  -0.500000   0.866026   0.000000 )  
               a(3) = (   0.000000   0.000000   0.852903 )  

     reciprocal axes: (cart. coord. in units 2 pi/alat)
               b(1) = (  1.000000  0.577350  0.000000 )  
               b(2) = (  0.000000  1.154700  0.000000 )  
               b(3) = (  0.000000  0.000000  1.172466 )  


     PseudoPot. # 1 for B  read from file:
     /g/g13/smart8/Pseudo/B_ONCV_PBE-1.0.upf
     MD5 check sum: a9fd2462c33df863cd3ce8a66ea40380
     Pseudo is Norm-conserving, Zval =  3.0
     Generated using ONCVPSP code by D. R. Hamann
     Using radial grid of 1534 points,  4 beta functions with: 
                l(1) =   0
                l(2) =   0
                l(3) =   1
                l(4) =   1

     PseudoPot. # 2 for N  read from file:
     /g/g13/smart8/Pseudo/N_ONCV_PBE-1.0.upf
     MD5 check sum: 09890da6b2972017450f7114a6086fad
     Pseudo is Norm-conserving, Zval =  5.0
     Generated using ONCVPSP code by D. R. Hamann
     Using radial grid of 1058 points,  4 beta functions with: 
                l(1) =   0
                l(2) =   0
                l(3) =   1
                l(4) =   1

     PseudoPot. # 3 for Ti read from file:
     /g/g13/smart8/Pseudo/Ti_ONCV_PBE-1.0.upf
     MD5 check sum: 4c1f1eb84d597b0c1f6d2d217b0e28bb
     Pseudo is Norm-conserving, Zval = 12.0
     Generated using ONCVPSP code by D. R. Hamann
     Using radial grid of 1586 points,  6 beta functions with: 
                l(1) =   0
                l(2) =   0
                l(3) =   1
                l(4) =   1
                l(5) =   2
                l(6) =   2

     atomic species   valence    mass     pseudopotential
        B              3.00    10.81100     B ( 1.00)
        N              5.00    14.00674     N ( 1.00)
        Ti            12.00    47.86700     Ti( 1.00)

     Starting magnetic structure 
     atomic species   magnetization
        B            0.000
        N            0.000
        Ti           1.000

     No symmetry found


                                    s                        frac. trans.

      isym =  1     identity                                     

 cryst.   s( 1) = (     1          0          0      )
                  (     0          1          0      )
                  (     0          0          1      )

 cart.    s( 1) = (  1.0000000  0.0000000  0.0000000 )
                  (  0.0000000  1.0000000  0.0000000 )
                  (  0.0000000  0.0000000  1.0000000 )


   Cartesian axes

     site n.     atom                  positions (alat units)
         1           B   tau(   1) = (  -0.0000160   0.0818508   0.4226760  )
         2           B   tau(   2) = (  -0.0716281   0.2056324   0.4224293  )
         3           B   tau(   3) = (  -0.1431039   0.3294099   0.4228965  )
         4           B   tau(   4) = (  -0.2143649   0.4531735   0.4230184  )
         5           B   tau(   5) = (  -0.2855557   0.5768472   0.4231833  )
         6           B   tau(   6) = (  -0.3569625   0.7005588   0.4236809  )
         7           B   tau(   7) = (  -0.4284397   0.8242633   0.4233213  )
         8           B   tau(   8) = (   0.1430028   0.0820379   0.4245792  )
         9           B   tau(   9) = (   0.0710703   0.2050893   0.4258824  )
        10           B   tau(  10) = (  -0.0004588   0.3291844   0.4275681  )
        11           B   tau(  11) = (  -0.0715946   0.4530109   0.4269725  )
        12           B   tau(  12) = (  -0.1425255   0.5767849   0.4250112  )
        13           B   tau(  13) = (  -0.2140556   0.7005062   0.4234263  )
        14           B   tau(  14) = (  -0.2855717   0.8242671   0.4234512  )
        15           B   tau(  15) = (   0.2857885   0.0819868   0.4247814  )
        16           B   tau(  16) = (   0.2145671   0.2058703   0.4298066  )
        17           B   tau(  17) = (   0.1410691   0.3284910   0.4372550  )
        18           B   tau(  18) = (   0.0712103   0.4522207   0.4388877  )
        19           B   tau(  19) = (   0.0006589   0.5765351   0.4306174  )
        20           B   tau(  20) = (  -0.0711160   0.7004401   0.4250604  )
        21           B   tau(  21) = (  -0.1427243   0.8242490   0.4231941  )
        22           B   tau(  22) = (   0.4284930   0.0821847   0.4230602  )
        23           B   tau(  23) = (   0.3569612   0.2059795   0.4268575  )
        24           B   tau(  24) = (   0.2869957   0.3307265   0.4390811  )
        25           B   tau(  25) = (   0.1435954   0.5774957   0.4380065  )
        26           B   tau(  26) = (   0.0715395   0.7008436   0.4268417  )
        27           B   tau(  27) = (  -0.0000100   0.8244484   0.4230671  )
        28           B   tau(  28) = (   0.5713183   0.0821534   0.4219979  )
        29           B   tau(  29) = (   0.4998873   0.2057712   0.4231563  )
        30           B   tau(  30) = (   0.4288241   0.3293244   0.4284747  )
        31           B   tau(  31) = (   0.3567607   0.4514413   0.4385687  )
        32           B   tau(  32) = (   0.2857055   0.5789042   0.4363513  )
        33           B   tau(  33) = (   0.2143415   0.7011477   0.4272667  )
        34           B   tau(  34) = (   0.1427897   0.8245690   0.4229991  )
        35           B   tau(  35) = (   0.7141896   0.0821598   0.4214225  )
        36           B   tau(  36) = (   0.6427125   0.2058634   0.4214453  )
        37           B   tau(  37) = (   0.5713629   0.3295931   0.4230924  )
        38           B   tau(  38) = (   0.4997759   0.4532563   0.4268078  )
        39           B   tau(  39) = (   0.4286833   0.5766371   0.4300134  )
        40           B   tau(  40) = (   0.3575943   0.7013071   0.4262450  )
        41           B   tau(  41) = (   0.2857613   0.8245794   0.4227566  )
        42           B   tau(  42) = (   0.8571064   0.0820802   0.4215836  )
        43           B   tau(  43) = (   0.7855390   0.2057771   0.4212345  )
        44           B   tau(  44) = (   0.7141368   0.3295474   0.4217692  )
        45           B   tau(  45) = (   0.6427259   0.4532396   0.4230030  )
        46           B   tau(  46) = (   0.5715256   0.5769225   0.4250403  )
        47           B   tau(  47) = (   0.5001074   0.7005161   0.4251757  )
        48           B   tau(  48) = (   0.4287766   0.8245102   0.4230741  )
        49           N   tau(  49) = (   0.0715648   0.0407300   0.4231879  )
        50           N   tau(  50) = (  -0.0002471   0.1641035   0.4229476  )
        51           N   tau(  51) = (  -0.0718441   0.2880028   0.4235663  )
        52           N   tau(  52) = (  -0.1431484   0.4118615   0.4237117  )
        53           N   tau(  53) = (  -0.2141866   0.5356366   0.4233956  )
        54           N   tau(  54) = (  -0.2855752   0.6593142   0.4233005  )
        55           N   tau(  55) = (  -0.3569969   0.7830303   0.4234673  )
        56           N   tau(  56) = (   0.2144170   0.0407730   0.4241659  )
        57           N   tau(  57) = (   0.1430796   0.1645057   0.4268472  )
        58           N   tau(  58) = (   0.0705353   0.2869157   0.4288746  )
        59           N   tau(  59) = (  -0.0006914   0.4115926   0.4302216  )
        60           N   tau(  60) = (  -0.0712427   0.5355455   0.4277288  )
        61           N   tau(  61) = (  -0.1426734   0.6593105   0.4243010  )
        62           N   tau(  62) = (  -0.2141699   0.7830400   0.4232301  )
        63           N   tau(  63) = (   0.3571734   0.0408390   0.4233950  )
        64           N   tau(  64) = (   0.2857981   0.1646314   0.4272941  )
        65           N   tau(  65) = (   0.2150194   0.2888108   0.4358265  )
        66           N   tau(  66) = (   0.1393481   0.4084123   0.4483693  )
        67           N   tau(  67) = (   0.0718791   0.5353866   0.4370244  )
        68           N   tau(  68) = (   0.0002303   0.6593020   0.4278181  )
        69           N   tau(  69) = (  -0.0713379   0.7830643   0.4234783  )
        70           N   tau(  70) = (   0.4998760   0.0410037   0.4224140  )
        71           N   tau(  71) = (   0.4283548   0.1648035   0.4237879  )
        72           N   tau(  72) = (   0.3569644   0.2888425   0.4305683  )
        73           N   tau(  73) = (   0.2156259   0.5402509   0.4464696  )
        74           N   tau(  74) = (   0.1428638   0.6601140   0.4296684  )
        75           N   tau(  75) = (   0.0713695   0.7833862   0.4236546  )
        76           N   tau(  76) = (   0.6427313   0.0410483   0.4219989  )
        77           N   tau(  77) = (   0.5712463   0.1646687   0.4218939  )
        78           N   tau(  78) = (   0.4998551   0.2883247   0.4241655  )
        79           N   tau(  79) = (   0.4280103   0.4118088   0.4303092  )
        80           N   tau(  80) = (   0.3570593   0.5347232   0.4355297  )
        81           N   tau(  81) = (   0.2864627   0.6608305   0.4286104  )
        82           N   tau(  82) = (   0.2143050   0.7835756   0.4236679  )
        83           N   tau(  83) = (   0.7856722   0.0409915   0.4215459  )
        84           N   tau(  84) = (   0.7140801   0.1646352   0.4210770  )
        85           N   tau(  85) = (   0.6426464   0.2883576   0.4216967  )
        86           N   tau(  86) = (   0.5711262   0.4120331   0.4238244  )
        87           N   tau(  87) = (   0.4999860   0.5355664   0.4274954  )
        88           N   tau(  88) = (   0.4287399   0.6592221   0.4274551  )
        89           N   tau(  89) = (   0.3574396   0.7835628   0.4235051  )
        90           N   tau(  90) = (   0.9285938   0.0408223   0.4223016  )
        91           N   tau(  91) = (   0.8569382   0.1644862   0.4213069  )
        92           N   tau(  92) = (   0.7854143   0.2882156   0.4216889  )
        93           N   tau(  93) = (   0.7140668   0.4119997   0.4222781  )
        94           N   tau(  94) = (   0.6428366   0.5356671   0.4233796  )
        95           N   tau(  95) = (   0.5715449   0.6593219   0.4246493  )
        96           N   tau(  96) = (   0.5001365   0.7830219   0.4236598  )
        97           Ti  tau(  97) = (   0.2348136   0.4418291   0.4915911  )

   Crystallographic axes

     site n.     atom                  positions (cryst. coord.)
         1           B   tau(   1) = (  0.0472405  0.0945131  0.4955734  )
         2           B   tau(   2) = (  0.0470938  0.2374438  0.4952841  )
         3           B   tau(   3) = (  0.0470809  0.3803696  0.4958319  )
         4           B   tau(   4) = (  0.0472749  0.5232796  0.4959749  )
         5           B   tau(   5) = (  0.0474871  0.6660856  0.4961682  )
         6           B   tau(   6) = (  0.0475051  0.8089353  0.4967517  )
         7           B   tau(   7) = (  0.0474488  0.9517770  0.4963300  )
         8           B   tau(   8) = (  0.1903673  0.0947291  0.4978049  )
         9           B   tau(   9) = (  0.1894786  0.2368167  0.4993328  )
        10           B   tau(  10) = (  0.1895959  0.3801093  0.5013093  )
        11           B   tau(  11) = (  0.1899513  0.5230918  0.5006109  )
        12           B   tau(  12) = (  0.1904813  0.6660137  0.4983114  )
        13           B   tau(  13) = (  0.1903817  0.8088746  0.4964531  )
        14           B   tau(  14) = (  0.1903190  0.9517814  0.4964823  )
        15           B   tau(  15) = (  0.3331236  0.0946702  0.4980419  )
        16           B   tau(  16) = (  0.3334263  0.2377185  0.5039338  )
        17           B   tau(  17) = (  0.3307234  0.3793086  0.5126669  )
        18           B   tau(  18) = (  0.3323000  0.5221793  0.5145811  )
        19           B   tau(  19) = (  0.3335216  0.6657252  0.5048844  )
        20           B   tau(  20) = (  0.3332831  0.8087983  0.4983690  )
        21           B   tau(  21) = (  0.3331560  0.9517605  0.4961809  )
        22           B   tau(  22) = (  0.4759424  0.0948987  0.4960238  )
        23           B   tau(  23) = (  0.4758834  0.2378446  0.5004760  )
        24           B   tau(  24) = (  0.4779406  0.3818899  0.5148079  )
        25           B   tau(  25) = (  0.4770126  0.6668344  0.5135479  )
        26           B   tau(  26) = (  0.4761716  0.8092643  0.5004575  )
        27           B   tau(  27) = (  0.4759853  0.9519908  0.4960319  )
        28           B   tau(  28) = (  0.6187496  0.0948625  0.4947784  )
        29           B   tau(  29) = (  0.6186893  0.2376041  0.4961365  )
        30           B   tau(  30) = (  0.6189596  0.3802709  0.5023722  )
        31           B   tau(  31) = (  0.6174003  0.5212793  0.5142070  )
        32           B   tau(  32) = (  0.6199359  0.6684608  0.5116072  )
        33           B   tau(  33) = (  0.6191492  0.8096154  0.5009558  )
        34           B   tau(  34) = (  0.6188547  0.9521300  0.4959522  )
        35           B   tau(  35) = (  0.7616246  0.0948700  0.4941038  )
        36           B   tau(  36) = (  0.7615678  0.2377105  0.4941304  )
        37           B   tau(  37) = (  0.7616535  0.3805812  0.4960616  )
        38           B   tau(  38) = (  0.7614635  0.5233751  0.5004178  )
        39           B   tau(  39) = (  0.7616048  0.6658430  0.5041762  )
        40           B   tau(  40) = (  0.7624940  0.8097995  0.4997579  )
        41           B   tau(  41) = (  0.7618323  0.9521420  0.4956679  )
        42           B   tau(  42) = (  0.9044954  0.0947780  0.4942926  )
        43           B   tau(  43) = (  0.9043444  0.2376108  0.4938833  )
        44           B   tau(  44) = (  0.9044010  0.3805285  0.4945102  )
        45           B   tau(  45) = (  0.9044039  0.5233559  0.4959568  )
        46           B   tau(  46) = (  0.9046118  0.6661726  0.4983455  )
        47           B   tau(  47) = (  0.9045504  0.8088861  0.4985042  )
        48           B   tau(  48) = (  0.9048077  0.9520621  0.4960401  )
        49           N   tau(  49) = (  0.0950802  0.0470309  0.4961736  )
        50           N   tau(  50) = (  0.0944981  0.1894904  0.4958918  )
        51           N   tau(  51) = (  0.0944343  0.3325569  0.4966172  )
        52           N   tau(  52) = (  0.0946399  0.4755766  0.4967877  )
        53           N   tau(  53) = (  0.0950633  0.6184996  0.4964172  )
        54           N   tau(  54) = (  0.0950799  0.7613102  0.4963057  )
        55           N   tau(  55) = (  0.0950857  0.9041652  0.4965012  )
        56           N   tau(  56) = (  0.2379573  0.0470806  0.4973203  )
        57           N   tau(  57) = (  0.2380570  0.1899548  0.5004640  )
        58           N   tau(  58) = (  0.2361860  0.3313016  0.5028411  )
        59           N   tau(  59) = (  0.2369417  0.4752661  0.5044204  )
        60           N   tau(  60) = (  0.2379545  0.6183944  0.5014976  )
        61           N   tau(  61) = (  0.2379795  0.7613060  0.4974787  )
        62           N   tau(  62) = (  0.2379184  0.9041764  0.4962231  )
        63           N   tau(  63) = (  0.3807518  0.0471568  0.4964164  )
        64           N   tau(  64) = (  0.3808480  0.1900999  0.5009879  )
        65           N   tau(  65) = (  0.3817644  0.3334899  0.5109920  )
        66           N   tau(  66) = (  0.3751450  0.4715937  0.5256979  )
        67           N   tau(  67) = (  0.3809846  0.6182110  0.5123965  )
        68           N   tau(  68) = (  0.3808783  0.7612961  0.5016023  )
        69           N   tau(  69) = (  0.3807643  0.9042045  0.4965141  )
        70           N   tau(  70) = (  0.5235495  0.0473469  0.4952662  )
        71           N   tau(  71) = (  0.5235041  0.1902986  0.4968770  )
        72           N   tau(  72) = (  0.5237277  0.3335265  0.5048269  )
        73           N   tau(  73) = (  0.5275398  0.6238278  0.5234706  )
        74           N   tau(  74) = (  0.5239807  0.7622338  0.5037718  )
        75           N   tau(  75) = (  0.5236576  0.9045761  0.4967208  )
        76           N   tau(  76) = (  0.6664306  0.0473985  0.4947796  )
        77           N   tau(  77) = (  0.6663177  0.1901430  0.4946564  )
        78           N   tau(  78) = (  0.6663194  0.3329286  0.4973198  )
        79           N   tau(  79) = (  0.6657681  0.4755157  0.5045231  )
        80           N   tau(  80) = (  0.6657818  0.6174450  0.5106439  )
        81           N   tau(  81) = (  0.6679932  0.7630611  0.5025313  )
        82           N   tau(  82) = (  0.6667024  0.9047949  0.4967364  )
        83           N   tau(  83) = (  0.8093386  0.0473329  0.4942484  )
        84           N   tau(  84) = (  0.8091323  0.1901043  0.4936986  )
        85           N   tau(  85) = (  0.8091297  0.3329666  0.4944252  )
        86           N   tau(  86) = (  0.8090136  0.4757747  0.4969198  )
        87           N   tau(  87) = (  0.8091953  0.6184186  0.5012240  )
        88           N   tau(  88) = (  0.8093419  0.7612039  0.5011768  )
        89           N   tau(  89) = (  0.8098297  0.9047801  0.4965454  )
        90           N   tau(  90) = (  0.9521625  0.0471375  0.4951344  )
        91           N   tau(  91) = (  0.9519044  0.1899323  0.4939681  )
        92           N   tau(  92) = (  0.9518156  0.3328026  0.4944161  )
        93           N   tau(  93) = (  0.9519349  0.4757362  0.4951068  )
        94           N   tau(  94) = (  0.9521041  0.6185349  0.4963984  )
        95           N   tau(  95) = (  0.9522044  0.7613191  0.4978871  )
        96           N   tau(  96) = (  0.9522142  0.9041555  0.4967269  )
        97           Ti  tau(  97) = (  0.4899037  0.5101801  0.5763740  )

     number of k points=     5
                       cart. coord. in units 2pi/alat
        k(    1) = (   0.0000000   0.0000000   0.0000000), wk =   0.1111111
        k(    2) = (   0.0000000   0.3849001   0.0000000), wk =   0.2222222
        k(    3) = (   0.3333333   0.5773501   0.0000000), wk =   0.2222222
        k(    4) = (  -0.3333333   0.1924500   0.0000000), wk =   0.2222222
        k(    5) = (   0.3333333   0.1924500   0.0000000), wk =   0.2222222

                       cryst. coord.
        k(    1) = (   0.0000000   0.0000000   0.0000000), wk =   0.1111111
        k(    2) = (   0.0000000   0.3333333   0.0000000), wk =   0.2222222
        k(    3) = (   0.3333333   0.3333333   0.0000000), wk =   0.2222222
        k(    4) = (  -0.3333333   0.3333333   0.0000000), wk =   0.2222222
        k(    5) = (   0.3333333  -0.0000000   0.0000000), wk =   0.2222222

     Dense  grid:  1295129 G-vectors     FFT dimensions: ( 150, 150, 128)

     Estimated max dynamical RAM per process >     168.78MB

     Estimated total allocated dynamical RAM >   60759.06MB
     Generating pointlists ...
     new r_m :   0.0333 (alat units)  1.1059 (a.u.) for type    1
     new r_m :   0.0333 (alat units)  1.1059 (a.u.) for type    2
     new r_m :   0.0454 (alat units)  1.5075 (a.u.) for type    3

     Initial potential from superposition of free atoms
     Check: negative starting charge=(component1):   -0.003659
     Check: negative starting charge=(component2):   -0.003752

     starting charge  395.98610, renormalised to  396.00000

     negative rho (up, down):  3.659E-03 3.752E-03
     Starting wfc are  394 randomized atomic wfcs

     total cpu time spent up to now is       10.0 secs

     per-process dynamical memory:   148.0 Mb

     Self-consistent Calculation

     iteration #  1     ecut=    50.00 Ry     beta=0.70
     Davidson diagonalization with overlap
     ethr =  1.00E-02,  avg # of iterations =  2.0

     negative rho (up, down):  6.650E-04 6.842E-04

     total cpu time spent up to now is       18.0 secs

     total energy              =   -1343.04217220 Ry
     Harris-Foulkes estimate   =   -1352.57218156 Ry
     estimated scf accuracy    <      20.82281781 Ry

     total magnetization       =     2.00 Bohr mag/cell
     absolute magnetization    =     2.89 Bohr mag/cell

     iteration #  2     ecut=    50.00 Ry     beta=0.70
     Davidson diagonalization with overlap
     ethr =  5.26E-03,  avg # of iterations =  3.5

     negative rho (up, down):  3.244E-04 3.302E-04

     total cpu time spent up to now is       26.6 secs

     total energy              =   -1345.87205962 Ry
     Harris-Foulkes estimate   =   -1353.69920322 Ry
     estimated scf accuracy    <      15.68440940 Ry

     total magnetization       =     2.00 Bohr mag/cell
     absolute magnetization    =     4.94 Bohr mag/cell

     iteration #  3     ecut=    50.00 Ry     beta=0.70
     Davidson diagonalization with overlap
     ethr =  3.96E-03,  avg # of iterations =  4.5

     negative rho (up, down):  1.725E-04 1.899E-04

     total cpu time spent up to now is       35.0 secs

     total energy              =   -1349.19500096 Ry
     Harris-Foulkes estimate   =   -1351.51542126 Ry
     estimated scf accuracy    <       6.68708823 Ry

     total magnetization       =     2.00 Bohr mag/cell
     absolute magnetization    =     2.21 Bohr mag/cell

     iteration #  4     ecut=    50.00 Ry     beta=0.70
     Davidson diagonalization with overlap
     ethr =  1.69E-03,  avg # of iterations =  6.4

     negative rho (up, down):  1.381E-05 1.714E-05

     total cpu time spent up to now is       42.5 secs

     total energy              =   -1350.22387613 Ry
     Harris-Foulkes estimate   =   -1350.38346817 Ry
     estimated scf accuracy    <       0.41577261 Ry

     total magnetization       =     2.00 Bohr mag/cell
     absolute magnetization    =     2.59 Bohr mag/cell

     iteration #  5     ecut=    50.00 Ry     beta=0.70
     Davidson diagonalization with overlap
     ethr =  1.05E-04,  avg # of iterations = 11.5

     total cpu time spent up to now is       54.5 secs

     total energy              =   -1350.35439302 Ry
     Harris-Foulkes estimate   =   -1350.46682364 Ry
     estimated scf accuracy    <       0.31900024 Ry

     total magnetization       =     2.00 Bohr mag/cell
     absolute magnetization    =     2.42 Bohr mag/cell

     iteration #  6     ecut=    50.00 Ry     beta=0.70
     Davidson diagonalization with overlap
     ethr =  8.06E-05,  avg # of iterations =  5.3

     total cpu time spent up to now is       62.6 secs

     total energy              =   -1350.39556024 Ry
     Harris-Foulkes estimate   =   -1350.41749974 Ry
     estimated scf accuracy    <       0.05471423 Ry

     total magnetization       =     2.00 Bohr mag/cell
     absolute magnetization    =     2.32 Bohr mag/cell

     iteration #  7     ecut=    50.00 Ry     beta=0.70
     Davidson diagonalization with overlap
     ethr =  1.38E-05,  avg # of iterations =  7.8

     total cpu time spent up to now is       72.5 secs

     total energy              =   -1350.40709091 Ry
     Harris-Foulkes estimate   =   -1350.42161647 Ry
     estimated scf accuracy    <       0.06877695 Ry

     total magnetization       =     2.00 Bohr mag/cell
     absolute magnetization    =     2.26 Bohr mag/cell

     iteration #  8     ecut=    50.00 Ry     beta=0.70
     Davidson diagonalization with overlap
     ethr =  1.38E-05,  avg # of iterations =  6.1

     total cpu time spent up to now is       80.5 secs

     total energy              =   -1350.41481422 Ry
     Harris-Foulkes estimate   =   -1350.41515089 Ry
     estimated scf accuracy    <       0.00265196 Ry

     total magnetization       =     2.00 Bohr mag/cell
     absolute magnetization    =     2.22 Bohr mag/cell

     iteration #  9     ecut=    50.00 Ry     beta=0.70
     Davidson diagonalization with overlap
     c_bands:  1 eigenvalues not converged
     ethr =  6.70E-07,  avg # of iterations =  9.5

     total cpu time spent up to now is       92.5 secs

     total energy              =   -1350.41524725 Ry
     Harris-Foulkes estimate   =   -1350.41550796 Ry
     estimated scf accuracy    <       0.00099337 Ry

     total magnetization       =     2.00 Bohr mag/cell
     absolute magnetization    =     2.19 Bohr mag/cell

     iteration # 10     ecut=    50.00 Ry     beta=0.70
     Davidson diagonalization with overlap
     ethr =  2.51E-07,  avg # of iterations =  3.0

     total cpu time spent up to now is       99.4 secs

     total energy              =   -1350.41532740 Ry
     Harris-Foulkes estimate   =   -1350.41538656 Ry
     estimated scf accuracy    <       0.00028055 Ry

     total magnetization       =     2.00 Bohr mag/cell
     absolute magnetization    =     2.18 Bohr mag/cell

     iteration # 11     ecut=    50.00 Ry     beta=0.70
     Davidson diagonalization with overlap
     ethr =  7.08E-08,  avg # of iterations =  3.1

     total cpu time spent up to now is      107.5 secs

     total energy              =   -1350.41539863 Ry
     Harris-Foulkes estimate   =   -1350.41539137 Ry
     estimated scf accuracy    <       0.00003563 Ry

     total magnetization       =     2.00 Bohr mag/cell
     absolute magnetization    =     2.17 Bohr mag/cell

     iteration # 12     ecut=    50.00 Ry     beta=0.70
     Davidson diagonalization with overlap
     ethr =  9.00E-09,  avg # of iterations =  4.0

     total cpu time spent up to now is      115.7 secs

     total energy              =   -1350.41541126 Ry
     Harris-Foulkes estimate   =   -1350.41541270 Ry
     estimated scf accuracy    <       0.00001386 Ry

     total magnetization       =     2.00 Bohr mag/cell
     absolute magnetization    =     2.16 Bohr mag/cell

     iteration # 13     ecut=    50.00 Ry     beta=0.70
     Davidson diagonalization with overlap
     ethr =  3.50E-09,  avg # of iterations =  3.6

     total cpu time spent up to now is      123.4 secs

     total energy              =   -1350.41541447 Ry
     Harris-Foulkes estimate   =   -1350.41541455 Ry
     estimated scf accuracy    <       0.00000294 Ry

     total magnetization       =     2.00 Bohr mag/cell
     absolute magnetization    =     2.16 Bohr mag/cell

     iteration # 14     ecut=    50.00 Ry     beta=0.70
     Davidson diagonalization with overlap
     ethr =  7.42E-10,  avg # of iterations =  3.6

     total cpu time spent up to now is      131.8 secs

     total energy              =   -1350.41541563 Ry
     Harris-Foulkes estimate   =   -1350.41541575 Ry
     estimated scf accuracy    <       0.00000099 Ry

     total magnetization       =     2.00 Bohr mag/cell
     absolute magnetization    =     2.15 Bohr mag/cell

     iteration # 15     ecut=    50.00 Ry     beta=0.70
     Davidson diagonalization with overlap
     ethr =  2.51E-10,  avg # of iterations =  3.5

     total cpu time spent up to now is      139.3 secs

     total energy              =   -1350.41541588 Ry
     Harris-Foulkes estimate   =   -1350.41541592 Ry
     estimated scf accuracy    <       0.00000026 Ry

     total magnetization       =     2.00 Bohr mag/cell
     absolute magnetization    =     2.15 Bohr mag/cell

     iteration # 16     ecut=    50.00 Ry     beta=0.70
     Davidson diagonalization with overlap
     ethr =  6.58E-11,  avg # of iterations =  4.3

     total cpu time spent up to now is      146.9 secs

     total energy              =   -1350.41541599 Ry
     Harris-Foulkes estimate   =   -1350.41541599 Ry
     estimated scf accuracy    <       0.00000013 Ry

     total magnetization       =     2.00 Bohr mag/cell
     absolute magnetization    =     2.15 Bohr mag/cell

     iteration # 17     ecut=    50.00 Ry     beta=0.70
     Davidson diagonalization with overlap
     ethr =  3.30E-11,  avg # of iterations =  4.5

     total cpu time spent up to now is      154.2 secs

     total energy              =   -1350.41541602 Ry
     Harris-Foulkes estimate   =   -1350.41541604 Ry
     estimated scf accuracy    <       0.00000009 Ry

     total magnetization       =     2.00 Bohr mag/cell
     absolute magnetization    =     2.15 Bohr mag/cell

     iteration # 18     ecut=    50.00 Ry     beta=0.70
     Davidson diagonalization with overlap
     ethr =  2.16E-11,  avg # of iterations =  4.0

     total cpu time spent up to now is      161.5 secs

     total energy              =   -1350.41541604 Ry
     Harris-Foulkes estimate   =   -1350.41541604 Ry
     estimated scf accuracy    <       0.00000002 Ry

     total magnetization       =     2.00 Bohr mag/cell
     absolute magnetization    =     2.15 Bohr mag/cell

     iteration # 19     ecut=    50.00 Ry     beta=0.70
     Davidson diagonalization with overlap
     ethr =  3.93E-12,  avg # of iterations =  3.5
 
     Magnetic moment per site:
     atom:    1    charge:    0.8302    magn:    0.0000    constr:    0.0000
     atom:    2    charge:    0.8278    magn:    0.0001    constr:    0.0000
     atom:    3    charge:    0.8293    magn:    0.0001    constr:    0.0000
     atom:    4    charge:    0.8280    magn:    0.0000    constr:    0.0000
     atom:    5    charge:    0.8274    magn:    0.0000    constr:    0.0000
     atom:    6    charge:    0.8271    magn:    0.0000    constr:    0.0000
     atom:    7    charge:    0.8271    magn:    0.0000    constr:    0.0000
     atom:    8    charge:    0.8264    magn:    0.0003    constr:    0.0000
     atom:    9    charge:    0.8332    magn:    0.0003    constr:    0.0000
     atom:   10    charge:    0.8266    magn:    0.0006    constr:    0.0000
     atom:   11    charge:    0.8288    magn:    0.0001    constr:    0.0000
     atom:   12    charge:    0.8268    magn:    0.0000    constr:    0.0000
     atom:   13    charge:    0.8258    magn:    0.0000    constr:    0.0000
     atom:   14    charge:    0.8273    magn:    0.0000    constr:    0.0000
     atom:   15    charge:    0.8263    magn:    0.0002    constr:    0.0000
     atom:   16    charge:    0.8222    magn:    0.0055    constr:    0.0000
     atom:   17    charge:    0.8334    magn:    0.0036    constr:    0.0000
     atom:   18    charge:    0.8213    magn:    0.0030    constr:    0.0000
     atom:   19    charge:    0.8222    magn:    0.0001    constr:    0.0000
     atom:   20    charge:    0.8264    magn:    0.0000    constr:    0.0000
     atom:   21    charge:    0.8269    magn:    0.0000    constr:    0.0000
     atom:   22    charge:    0.8267    magn:    0.0000    constr:    0.0000
     atom:   23    charge:    0.8271    magn:    0.0010    constr:    0.0000
     atom:   24    charge:    0.7645    magn:    0.0503    constr:    0.0000
     atom:   25    charge:    0.8224    magn:    0.0031    constr:    0.0000
     atom:   26    charge:    0.8287    magn:    0.0001    constr:    0.0000
     atom:   27    charge:    0.8277    magn:    0.0000    constr:    0.0000
     atom:   28    charge:    0.8275    magn:    0.0000    constr:    0.0000
     atom:   29    charge:    0.8276    magn:    0.0004    constr:    0.0000
     atom:   30    charge:    0.8294    magn:    0.0039    constr:    0.0000
     atom:   31    charge:    0.7646    magn:    0.0508    constr:    0.0000
     atom:   32    charge:    0.8339    magn:    0.0037    constr:    0.0000
     atom:   33    charge:    0.8265    magn:    0.0006    constr:    0.0000
     atom:   34    charge:    0.8281    magn:    0.0001    constr:    0.0000
     atom:   35    charge:    0.8272    magn:    0.0001    constr:    0.0000
     atom:   36    charge:    0.8284    magn:    0.0001    constr:    0.0000
     atom:   37    charge:    0.8277    magn:    0.0004    constr:    0.0000
     atom:   38    charge:    0.8265    magn:    0.0010    constr:    0.0000
     atom:   39    charge:    0.8226    magn:    0.0055    constr:    0.0000
     atom:   40    charge:    0.8332    magn:    0.0003    constr:    0.0000
     atom:   41    charge:    0.8276    magn:    0.0001    constr:    0.0000
     atom:   42    charge:    0.8277    magn:    0.0000    constr:    0.0000
     atom:   43    charge:    0.8282    magn:    0.0001    constr:    0.0000
     atom:   44    charge:    0.8280    magn:    0.0000    constr:    0.0000
     atom:   45    charge:    0.8268    magn:    0.0000    constr:    0.0000
     atom:   46    charge:    0.8270    magn:    0.0002    constr:    0.0000
     atom:   47    charge:    0.8275    magn:    0.0003    constr:    0.0000
     atom:   48    charge:    0.8299    magn:    0.0000    constr:    0.0000
     atom:   49    charge:    2.7544    magn:    0.0001    constr:    0.0000
     atom:   50    charge:    2.7570    magn:   -0.0001    constr:    0.0000
     atom:   51    charge:    2.7557    magn:   -0.0001    constr:    0.0000
     atom:   52    charge:    2.7550    magn:   -0.0001    constr:    0.0000
     atom:   53    charge:    2.7538    magn:    0.0000    constr:    0.0000
     atom:   54    charge:    2.7553    magn:    0.0000    constr:    0.0000
     atom:   55    charge:    2.7538    magn:    0.0000    constr:    0.0000
     atom:   56    charge:    2.7552    magn:    0.0001    constr:    0.0000
     atom:   57    charge:    2.7543    magn:    0.0012    constr:    0.0000
     atom:   58    charge:    2.7589    magn:   -0.0006    constr:    0.0000
     atom:   59    charge:    2.7527    magn:   -0.0005    constr:    0.0000
     atom:   60    charge:    2.7520    magn:   -0.0001    constr:    0.0000
     atom:   61    charge:    2.7550    magn:   -0.0000    constr:    0.0000
     atom:   62    charge:    2.7548    magn:    0.0000    constr:    0.0000
     atom:   63    charge:    2.7568    magn:    0.0001    constr:    0.0000
     atom:   64    charge:    2.7561    magn:    0.0008    constr:    0.0000
     atom:   65    charge:    2.7302    magn:    0.0229    constr:    0.0000
     atom:   66    charge:    2.7350    magn:   -0.0150    constr:    0.0000
     atom:   67    charge:    2.7442    magn:   -0.0013    constr:    0.0000
     atom:   68    charge:    2.7507    magn:   -0.0001    constr:    0.0000
     atom:   69    charge:    2.7539    magn:    0.0000    constr:    0.0000
     atom:   70    charge:    2.7549    magn:   -0.0000    constr:    0.0000
     atom:   71    charge:    2.7545    magn:   -0.0003    constr:    0.0000
     atom:   72    charge:    2.7509    magn:   -0.0005    constr:    0.0000
     atom:   73    charge:    2.7365    magn:   -0.0148    constr:    0.0000
     atom:   74    charge:    2.7526    magn:   -0.0005    constr:    0.0000
     atom:   75    charge:    2.7553    magn:   -0.0001    constr:    0.0000
     atom:   76    charge:    2.7554    magn:   -0.0000    constr:    0.0000
     atom:   77    charge:    2.7562    magn:   -0.0000    constr:    0.0000
     atom:   78    charge:    2.7560    magn:   -0.0000    constr:    0.0000
     atom:   79    charge:    2.7510    magn:   -0.0006    constr:    0.0000
     atom:   80    charge:    2.7303    magn:    0.0222    constr:    0.0000
     atom:   81    charge:    2.7594    magn:   -0.0006    constr:    0.0000
     atom:   82    charge:    2.7559    magn:   -0.0001    constr:    0.0000
     atom:   83    charge:    2.7561    magn:   -0.0000    constr:    0.0000
     atom:   84    charge:    2.7563    magn:   -0.0000    constr:    0.0000
     atom:   85    charge:    2.7560    magn:   -0.0000    constr:    0.0000
     atom:   86    charge:    2.7545    magn:   -0.0003    constr:    0.0000
     atom:   87    charge:    2.7569    magn:    0.0007    constr:    0.0000
     atom:   88    charge:    2.7527    magn:    0.0011    constr:    0.0000
     atom:   89    charge:    2.7563    magn:   -0.0001    constr:    0.0000
     atom:   90    charge:    2.7568    magn:   -0.0000    constr:    0.0000
     atom:   91    charge:    2.7568    magn:   -0.0000    constr:    0.0000
     atom:   92    charge:    2.7547    magn:   -0.0000    constr:    0.0000
     atom:   93    charge:    2.7547    magn:   -0.0000    constr:    0.0000
     atom:   94    charge:    2.7555    magn:    0.0001    constr:    0.0000
     atom:   95    charge:    2.7550    magn:    0.0001    constr:    0.0000
     atom:   96    charge:    2.7546    magn:    0.0001    constr:    0.0000
     atom:   97    charge:    8.6621    magn:    0.7837    constr:    0.0000

     total cpu time spent up to now is      168.5 secs

     End of self-consistent calculation

 ------ SPIN UP ------------


          k = 0.0000 0.0000 0.0000 (161811 PWs)   bands (ev):

   -58.5542 -35.1091 -35.0037 -34.8544 -21.0275 -20.7013 -20.6989 -20.6707
   -20.6185 -20.6066 -20.3760 -19.9479 -19.9319 -19.9213 -19.8931 -19.8631
   -19.7762 -19.5846 -19.5807 -19.5762 -19.5137 -19.4568 -19.1549 -18.7141
   -18.7105 -18.6939 -18.6898 -18.6868 -18.6733 -18.6487 -18.6297 -18.6084
   -18.5391 -18.4898 -18.3844 -18.2888 -18.2821 -18.2464 -18.1627 -18.1052
   -17.9308 -17.8486 -17.8331 -17.8309 -17.7610 -17.7442 -17.7218 -17.6760
   -17.6531 -17.6184 -17.2410 -17.1162 -12.0748 -12.0635 -12.0568 -12.0289
   -12.0172 -11.9955 -11.9312 -11.8683 -11.8456 -11.7663 -11.6846 -11.6034
   -11.4431 -11.3900 -11.3604 -11.2259 -11.2042 -11.1684 -10.9197 -10.7044
   -10.6971 -10.6891 -10.6738 -10.6696 -10.6397 -10.6330 -10.5346 -10.5060
   -10.3516 -10.2924 -10.0379 -10.0205  -9.9944  -9.8912  -9.7882  -9.6679
    -9.4037  -9.2979  -9.2637  -9.2244  -9.1551  -8.8647  -8.6726  -8.6292
    -8.5997  -8.5963  -8.5434  -8.5043  -8.4934  -8.3692  -8.2079  -8.2027
    -8.1894  -8.1870  -8.1860  -8.1774  -8.1623  -8.1580  -8.1442  -8.1429
    -8.1387  -8.1331  -8.1279  -8.1106  -8.1020  -8.0906  -8.0625  -8.0465
    -7.8752  -7.8303  -7.8056  -7.7303  -7.5105  -7.5082  -7.4738  -7.3617
    -7.2138  -7.1231  -7.1031  -7.1004  -7.0824  -7.0574  -7.0365  -6.9514
    -6.9234  -6.8267  -6.8096  -6.7769  -6.7586  -6.7468  -6.7375  -6.6852
    -6.6696  -6.6492  -6.6309  -6.6282  -6.6026  -6.5892  -6.5028  -6.4903
    -6.4057  -6.3309  -6.3299  -6.2986  -6.2550  -5.9654  -5.8818  -5.6123
    -5.5027  -5.4905  -5.4677  -5.4162  -5.3752  -5.3653  -5.3486  -5.3457
    -5.3313  -5.3243  -5.3052  -5.2787  -5.2681  -5.1824  -5.1295  -5.0645
    -4.9627  -4.7943  -4.7807  -4.7407  -4.7330  -4.7168  -4.5932  -4.4766
    -4.3621  -4.2303  -4.0695  -4.0457  -4.0452  -3.9711  -3.9677  -3.8855
    -3.8203  -3.7879  -3.7862  -3.6687  -3.6284  -1.5389  -1.3585  -0.5645
     0.0581   0.2041   0.5518   1.2274   1.4058   1.4112   1.4249   1.4593
     1.4906   1.4974   1.5704   1.5920   1.5983   1.6026   1.6501   1.7325
     1.8421   1.8701   1.8733   1.8984

     occupation numbers 
     1.0000   1.0000   1.0000   1.0000   1.0000   1.0000   1.0000   1.0000
     1.0000   1.0000   1.0000   1.0000   1.0000   1.0000   1.0000   1.0000
     1.0000   1.0000   1.0000   1.0000   1.0000   1.0000   1.0000   1.0000
     1.0000   1.0000   1.0000   1.0000   1.0000   1.0000   1.0000   1.0000
     1.0000   1.0000   1.0000   1.0000   1.0000   1.0000   1.0000   1.0000
     1.0000   1.0000   1.0000   1.0000   1.0000   1.0000   1.0000   1.0000
     1.0000   1.0000   1.0000   1.0000   1.0000   1.0000   1.0000   1.0000
     1.0000   1.0000   1.0000   1.0000   1.0000   1.0000   1.0000   1.0000
     1.0000   1.0000   1.0000   1.0000   1.0000   1.0000   1.0000   1.0000
     1.0000   1.0000   1.0000   1.0000   1.0000   1.0000   1.0000   1.0000
     1.0000   1.0000   1.0000   1.0000   1.0000   1.0000   1.0000   1.0000
     1.0000   1.0000   1.0000   1.0000   1.0000   1.0000   1.0000   1.0000
     1.0000   1.0000   1.0000   1.0000   1.0000   1.0000   1.0000   1.0000
     1.0000   1.0000   1.0000   1.0000   1.0000   1.0000   1.0000   1.0000
     1.0000   1.0000   1.0000   1.0000   1.0000   1.0000   1.0000   1.0000
     1.0000   1.0000   1.0000   1.0000   1.0000   1.0000   1.0000   1.0000
     1.0000   1.0000   1.0000   1.0000   1.0000   1.0000   1.0000   1.0000
     1.0000   1.0000   1.0000   1.0000   1.0000   1.0000   1.0000   1.0000
     1.0000   1.0000   1.0000   1.0000   1.0000   1.0000   1.0000   1.0000
     1.0000   1.0000   1.0000   1.0000   1.0000   1.0000   1.0000   1.0000
     1.0000   1.0000   1.0000   1.0000   1.0000   1.0000   1.0000   1.0000
     1.0000   1.0000   1.0000   1.0000   1.0000   1.0000   1.0000   1.0000
     1.0000   1.0000   1.0000   1.0000   1.0000   1.0000   1.0000   1.0000
     1.0000   1.0000   1.0000   1.0000   1.0000   1.0000   1.0000   1.0000
     1.0000   1.0000   1.0000   1.0000   1.0000   1.0000   1.0000   0.0000
     0.0000   0.0000   0.0000   0.0000   0.0000   0.0000   0.0000   0.0000
     0.0000   0.0000   0.0000   0.0000   0.0000   0.0000   0.0000   0.0000
     0.0000   0.0000   0.0000   0.0000

          k = 0.0000 0.3849 0.0000 (161877 PWs)   bands (ev):

   -58.5542 -35.1091 -35.0037 -34.8544 -20.9907 -20.8662 -20.7329 -20.6607
   -20.4914 -20.4429 -20.2834 -20.2392 -20.1427 -19.9396 -19.8647 -19.8445
   -19.7038 -19.6295 -19.5413 -19.4484 -19.2779 -19.2253 -19.1284 -19.0830
   -19.0148 -18.9626 -18.8226 -18.6935 -18.6832 -18.5829 -18.5215 -18.4938
   -18.3717 -18.3408 -18.2914 -18.2755 -18.2148 -18.1431 -18.0665 -18.0602
   -17.9937 -17.9762 -17.9442 -17.8977 -17.8376 -17.8024 -17.7202 -17.6979
   -17.6124 -17.5251 -17.2426 -17.1051 -12.2097 -12.1383 -12.1294 -12.0373
   -11.9819 -11.8794 -11.8203 -11.8031 -11.7767 -11.5881 -11.5276 -11.5183
   -11.4384 -11.4071 -11.3843 -11.3207 -11.2770 -11.2029 -11.1639 -11.0747
   -11.0522 -10.9233 -10.8389 -10.7128 -10.4616 -10.3165 -10.3047 -10.2662
   -10.2543 -10.1428 -10.0225  -9.8851  -9.8212  -9.7715  -9.7218  -9.6396
    -9.5541  -9.4352  -9.2470  -9.1650  -9.1152  -8.9820  -8.8923  -8.8469
    -8.7814  -8.6888  -8.6147  -8.5476  -8.5371  -8.5204  -8.4715  -8.4018
    -8.3879  -8.3742  -8.3348  -8.2488  -8.2060  -8.1968  -8.1315  -8.0444
    -7.9841  -7.8742  -7.8639  -7.8183  -7.7841  -7.7665  -7.7302  -7.6574
    -7.6423  -7.6239  -7.5881  -7.5574  -7.5369  -7.5252  -7.4971  -7.4561
    -7.4336  -7.4017  -7.3350  -7.3107  -7.1956  -7.1640  -7.1423  -7.0801
    -7.0217  -6.9973  -6.9740  -6.9003  -6.8827  -6.8415  -6.7993  -6.7723
    -6.7147  -6.6584  -6.5932  -6.5614  -6.4735  -6.4225  -6.2968  -6.2492
    -6.1932  -6.1631  -6.1012  -6.0452  -5.9853  -5.9497  -5.9289  -5.8946
    -5.8463  -5.7945  -5.7481  -5.6820  -5.5434  -5.4967  -5.4010  -5.3677
    -5.3492  -5.2652  -5.1782  -5.1372  -5.1032  -5.0388  -4.9675  -4.9246
    -4.8228  -4.7916  -4.7666  -4.7181  -4.6310  -4.5550  -4.4298  -4.4061
    -4.3220  -4.2789  -4.2498  -4.2307  -4.2077  -4.1501  -4.0795  -3.9043
    -3.8819  -3.8332  -3.7104  -3.5569  -3.4845  -1.5402  -1.3578  -0.5645
     0.0584   0.2047   0.5533   1.2830   1.3502   1.3605   1.4505   1.4630
     1.4736   1.5097   1.5186   1.5416   1.5861   1.6080   1.6510   1.6719
     1.7441   1.7904   1.8198   1.8962

     occupation numbers 
     1.0000   1.0000   1.0000   1.0000   1.0000   1.0000   1.0000   1.0000
     1.0000   1.0000   1.0000   1.0000   1.0000   1.0000   1.0000   1.0000
     1.0000   1.0000   1.0000   1.0000   1.0000   1.0000   1.0000   1.0000
     1.0000   1.0000   1.0000   1.0000   1.0000   1.0000   1.0000   1.0000
     1.0000   1.0000   1.0000   1.0000   1.0000   1.0000   1.0000   1.0000
     1.0000   1.0000   1.0000   1.0000   1.0000   1.0000   1.0000   1.0000
     1.0000   1.0000   1.0000   1.0000   1.0000   1.0000   1.0000   1.0000
     1.0000   1.0000   1.0000   1.0000   1.0000   1.0000   1.0000   1.0000
     1.0000   1.0000   1.0000   1.0000   1.0000   1.0000   1.0000   1.0000
     1.0000   1.0000   1.0000   1.0000   1.0000   1.0000   1.0000   1.0000
     1.0000   1.0000   1.0000   1.0000   1.0000   1.0000   1.0000   1.0000
     1.0000   1.0000   1.0000   1.0000   1.0000   1.0000   1.0000   1.0000
     1.0000   1.0000   1.0000   1.0000   1.0000   1.0000   1.0000   1.0000
     1.0000   1.0000   1.0000   1.0000   1.0000   1.0000   1.0000   1.0000
     1.0000   1.0000   1.0000   1.0000   1.0000   1.0000   1.0000   1.0000
     1.0000   1.0000   1.0000   1.0000   1.0000   1.0000   1.0000   1.0000
     1.0000   1.0000   1.0000   1.0000   1.0000   1.0000   1.0000   1.0000
     1.0000   1.0000   1.0000   1.0000   1.0000   1.0000   1.0000   1.0000
     1.0000   1.0000   1.0000   1.0000   1.0000   1.0000   1.0000   1.0000
     1.0000   1.0000   1.0000   1.0000   1.0000   1.0000   1.0000   1.0000
     1.0000   1.0000   1.0000   1.0000   1.0000   1.0000   1.0000   1.0000
     1.0000   1.0000   1.0000   1.0000   1.0000   1.0000   1.0000   1.0000
     1.0000   1.0000   1.0000   1.0000   1.0000   1.0000   1.0000   1.0000
     1.0000   1.0000   1.0000   1.0000   1.0000   1.0000   1.0000   1.0000
     1.0000   1.0000   1.0000   1.0000   1.0000   1.0000   1.0000   0.0000
     0.0000   0.0000   0.0000   0.0000   0.0000   0.0000   0.0000   0.0000
     0.0000   0.0000   0.0000   0.0000   0.0000   0.0000   0.0000   0.0000
     0.0000   0.0000   0.0000   0.0000

          k = 0.3333 0.5774 0.0000 (161838 PWs)   bands (ev):

   -58.5542 -35.1091 -35.0037 -34.8544 -20.9393 -20.9262 -20.8039 -20.5313
   -20.5150 -20.4365 -20.1957 -20.1824 -20.1723 -20.1024 -20.0721 -19.8479
   -19.5024 -19.4857 -19.4829 -19.3974 -19.3644 -19.2697 -19.1319 -19.1033
   -19.0395 -18.8678 -18.8627 -18.8612 -18.7855 -18.7221 -18.5134 -18.3206
   -18.3007 -18.2871 -18.2037 -18.1939 -18.1683 -18.1257 -18.0726 -18.0586
   -17.9933 -17.9861 -17.9815 -17.9556 -17.9378 -17.8933 -17.7498 -17.6297
   -17.6020 -17.5161 -17.2400 -17.0999 -12.2495 -12.2199 -12.2069 -11.8810
   -11.7898 -11.7615 -11.7426 -11.7294 -11.7243 -11.6392 -11.6119 -11.5832
   -11.5586 -11.5215 -11.5086 -11.4219 -11.3688 -11.2382 -11.1143 -10.9366
   -10.7861 -10.7775 -10.7572 -10.7223 -10.6638 -10.6236 -10.6176 -10.4540
   -10.1883  -9.9095  -9.8160  -9.7736  -9.6362  -9.5838  -9.5439  -9.4456
    -9.3362  -9.3346  -9.2887  -9.2156  -9.1741  -9.1318  -9.1172  -9.0941
    -9.0707  -9.0452  -8.9567  -8.8284  -8.6885  -8.4685  -8.4572  -8.3313
    -8.2878  -8.0769  -8.0046  -8.0013  -7.9799  -7.9601  -7.9451  -7.9285
    -7.9127  -7.8913  -7.8621  -7.8504  -7.8299  -7.8085  -7.7816  -7.7558
    -7.7446  -7.7247  -7.5992  -7.5772  -7.5063  -7.4647  -7.4449  -7.4310
    -7.3908  -7.3567  -7.3195  -7.3138  -7.3119  -7.2816  -7.2570  -7.1953
    -7.1531  -7.1445  -7.1365  -7.1063  -6.9404  -6.8074  -6.7223  -6.5709
    -6.5312  -6.5032  -6.4775  -6.4693  -6.4235  -6.3879  -6.3598  -6.2742
    -6.2192  -6.2169  -6.1785  -6.0671  -6.0183  -5.9757  -5.9369  -5.9010
    -5.8020  -5.6743  -5.6273  -5.6136  -5.6107  -5.5621  -5.5464  -5.5082
    -5.4727  -5.3412  -5.2626  -5.1759  -5.0754  -4.9077  -4.8493  -4.8220
    -4.7577  -4.7463  -4.6204  -4.6105  -4.5818  -4.5509  -4.4657  -4.4089
    -4.2992  -4.2924  -4.2792  -4.2521  -4.2325  -4.2265  -4.2025  -4.0839
    -3.9728  -3.7455  -3.6421  -3.5706  -3.4203  -1.5403  -1.3573  -0.5644
     0.0597   0.2051   0.5532   1.2717   1.3337   1.3659   1.3775   1.4124
     1.4360   1.4568   1.4894   1.4922   1.5882   1.8321   1.8474   1.8612
     1.8850   1.8974   1.9111   1.9353

     occupation numbers 
     1.0000   1.0000   1.0000   1.0000   1.0000   1.0000   1.0000   1.0000
     1.0000   1.0000   1.0000   1.0000   1.0000   1.0000   1.0000   1.0000
     1.0000   1.0000   1.0000   1.0000   1.0000   1.0000   1.0000   1.0000
     1.0000   1.0000   1.0000   1.0000   1.0000   1.0000   1.0000   1.0000
     1.0000   1.0000   1.0000   1.0000   1.0000   1.0000   1.0000   1.0000
     1.0000   1.0000   1.0000   1.0000   1.0000   1.0000   1.0000   1.0000
     1.0000   1.0000   1.0000   1.0000   1.0000   1.0000   1.0000   1.0000
     1.0000   1.0000   1.0000   1.0000   1.0000   1.0000   1.0000   1.0000
     1.0000   1.0000   1.0000   1.0000   1.0000   1.0000   1.0000   1.0000
     1.0000   1.0000   1.0000   1.0000   1.0000   1.0000   1.0000   1.0000
     1.0000   1.0000   1.0000   1.0000   1.0000   1.0000   1.0000   1.0000
     1.0000   1.0000   1.0000   1.0000   1.0000   1.0000   1.0000   1.0000
     1.0000   1.0000   1.0000   1.0000   1.0000   1.0000   1.0000   1.0000
     1.0000   1.0000   1.0000   1.0000   1.0000   1.0000   1.0000   1.0000
     1.0000   1.0000   1.0000   1.0000   1.0000   1.0000   1.0000   1.0000
     1.0000   1.0000   1.0000   1.0000   1.0000   1.0000   1.0000   1.0000
     1.0000   1.0000   1.0000   1.0000   1.0000   1.0000   1.0000   1.0000
     1.0000   1.0000   1.0000   1.0000   1.0000   1.0000   1.0000   1.0000
     1.0000   1.0000   1.0000   1.0000   1.0000   1.0000   1.0000   1.0000
     1.0000   1.0000   1.0000   1.0000   1.0000   1.0000   1.0000   1.0000
     1.0000   1.0000   1.0000   1.0000   1.0000   1.0000   1.0000   1.0000
     1.0000   1.0000   1.0000   1.0000   1.0000   1.0000   1.0000   1.0000
     1.0000   1.0000   1.0000   1.0000   1.0000   1.0000   1.0000   1.0000
     1.0000   1.0000   1.0000   1.0000   1.0000   1.0000   1.0000   1.0000
     1.0000   1.0000   1.0000   1.0000   1.0000   1.0000   1.0000   0.0000
     0.0000   0.0000   0.0000   0.0000   0.0000   0.0000   0.0000   0.0000
     0.0000   0.0000   0.0000   0.0000   0.0000   0.0000   0.0000   0.0000
     0.0000   0.0000   0.0000   0.0000

          k =-0.3333 0.1925 0.0000 (161877 PWs)   bands (ev):

   -58.5542 -35.1091 -35.0037 -34.8544 -20.9927 -20.8542 -20.7501 -20.6617
   -20.4858 -20.4389 -20.2657 -20.2425 -20.1518 -19.9446 -19.8861 -19.8443
   -19.7237 -19.5745 -19.5425 -19.4547 -19.2962 -19.2007 -19.1202 -19.0829
   -18.9874 -18.9857 -18.8625 -18.7168 -18.6743 -18.5908 -18.5355 -18.4716
   -18.3837 -18.3039 -18.2967 -18.2335 -18.2152 -18.1454 -18.0703 -18.0489
   -17.9899 -17.9757 -17.9505 -17.9346 -17.8679 -17.8006 -17.7196 -17.6578
   -17.6061 -17.5488 -17.2359 -17.1066 -12.2184 -12.1316 -12.1167 -12.0479
   -12.0042 -11.8773 -11.8337 -11.7804 -11.7522 -11.5905 -11.5167 -11.4550
   -11.4425 -11.4051 -11.3978 -11.3503 -11.3095 -11.2058 -11.1453 -11.1204
   -11.0437 -10.9588 -10.7881 -10.7726 -10.4566 -10.3244 -10.2962 -10.2480
   -10.2472 -10.0673 -10.0138  -9.8975  -9.8326  -9.7441  -9.7322  -9.6573
    -9.5570  -9.4000  -9.2234  -9.1976  -9.1351  -8.9935  -8.9722  -8.8084
    -8.7873  -8.7195  -8.6544  -8.5653  -8.5470  -8.4858  -8.4463  -8.4292
    -8.3870  -8.3624  -8.3006  -8.2519  -8.2241  -8.1288  -8.0745  -8.0404
    -8.0393  -7.8867  -7.8741  -7.8097  -7.7846  -7.7731  -7.6846  -7.6499
    -7.6421  -7.6289  -7.5936  -7.5471  -7.5328  -7.5324  -7.4937  -7.4502
    -7.4458  -7.4060  -7.3436  -7.3052  -7.2225  -7.1600  -7.1317  -7.0601
    -7.0505  -6.9931  -6.9633  -6.9584  -6.8770  -6.8580  -6.7907  -6.7330
    -6.6928  -6.6641  -6.5845  -6.5514  -6.4791  -6.4281  -6.3307  -6.2715
    -6.2106  -6.1596  -6.1441  -5.9948  -5.9781  -5.9723  -5.9228  -5.8870
    -5.8499  -5.8037  -5.6890  -5.6449  -5.5551  -5.4956  -5.4119  -5.3460
    -5.3408  -5.2633  -5.1979  -5.1826  -5.0897  -5.0685  -4.9699  -4.9104
    -4.8253  -4.8086  -4.7315  -4.7212  -4.6139  -4.5812  -4.4150  -4.3891
    -4.3116  -4.2699  -4.2480  -4.2359  -4.2230  -4.1466  -4.0633  -3.9557
    -3.8962  -3.8225  -3.7269  -3.5094  -3.5030  -1.5394  -1.3578  -0.5642
     0.0594   0.2060   0.5526   1.2807   1.3341   1.3765   1.4464   1.4561
     1.4665   1.5108   1.5389   1.5602   1.5866   1.6270   1.6481   1.6582
     1.7155   1.7998   1.8240   1.9063

     occupation numbers 
     1.0000   1.0000   1.0000   1.0000   1.0000   1.0000   1.0000   1.0000
     1.0000   1.0000   1.0000   1.0000   1.0000   1.0000   1.0000   1.0000
     1.0000   1.0000   1.0000   1.0000   1.0000   1.0000   1.0000   1.0000
     1.0000   1.0000   1.0000   1.0000   1.0000   1.0000   1.0000   1.0000
     1.0000   1.0000   1.0000   1.0000   1.0000   1.0000   1.0000   1.0000
     1.0000   1.0000   1.0000   1.0000   1.0000   1.0000   1.0000   1.0000
     1.0000   1.0000   1.0000   1.0000   1.0000   1.0000   1.0000   1.0000
     1.0000   1.0000   1.0000   1.0000   1.0000   1.0000   1.0000   1.0000
     1.0000   1.0000   1.0000   1.0000   1.0000   1.0000   1.0000   1.0000
     1.0000   1.0000   1.0000   1.0000   1.0000   1.0000   1.0000   1.0000
     1.0000   1.0000   1.0000   1.0000   1.0000   1.0000   1.0000   1.0000
     1.0000   1.0000   1.0000   1.0000   1.0000   1.0000   1.0000   1.0000
     1.0000   1.0000   1.0000   1.0000   1.0000   1.0000   1.0000   1.0000
     1.0000   1.0000   1.0000   1.0000   1.0000   1.0000   1.0000   1.0000
     1.0000   1.0000   1.0000   1.0000   1.0000   1.0000   1.0000   1.0000
     1.0000   1.0000   1.0000   1.0000   1.0000   1.0000   1.0000   1.0000
     1.0000   1.0000   1.0000   1.0000   1.0000   1.0000   1.0000   1.0000
     1.0000   1.0000   1.0000   1.0000   1.0000   1.0000   1.0000   1.0000
     1.0000   1.0000   1.0000   1.0000   1.0000   1.0000   1.0000   1.0000
     1.0000   1.0000   1.0000   1.0000   1.0000   1.0000   1.0000   1.0000
     1.0000   1.0000   1.0000   1.0000   1.0000   1.0000   1.0000   1.0000
     1.0000   1.0000   1.0000   1.0000   1.0000   1.0000   1.0000   1.0000
     1.0000   1.0000   1.0000   1.0000   1.0000   1.0000   1.0000   1.0000
     1.0000   1.0000   1.0000   1.0000   1.0000   1.0000   1.0000   1.0000
     1.0000   1.0000   1.0000   1.0000   1.0000   1.0000   1.0000   0.0000
     0.0000   0.0000   0.0000   0.0000   0.0000   0.0000   0.0000   0.0000
     0.0000   0.0000   0.0000   0.0000   0.0000   0.0000   0.0000   0.0000
     0.0000   0.0000   0.0000   0.0000

          k = 0.3333 0.1925 0.0000 (161877 PWs)   bands (ev):

   -58.5542 -35.1091 -35.0037 -34.8544 -20.9911 -20.8648 -20.7329 -20.6632
   -20.4898 -20.4429 -20.2838 -20.2381 -20.1424 -19.9396 -19.8660 -19.8458
   -19.7031 -19.6308 -19.5399 -19.4479 -19.2776 -19.2262 -19.1272 -19.0821
   -19.0148 -18.9627 -18.8227 -18.6949 -18.6844 -18.5828 -18.5213 -18.4942
   -18.3706 -18.3416 -18.2901 -18.2760 -18.2148 -18.1434 -18.0660 -18.0595
   -17.9928 -17.9747 -17.9451 -17.8982 -17.8385 -17.8028 -17.7217 -17.6968
   -17.6123 -17.5249 -17.2424 -17.1052 -12.2094 -12.1383 -12.1285 -12.0388
   -11.9831 -11.8789 -11.8197 -11.8033 -11.7764 -11.5874 -11.5272 -11.5177
   -11.4381 -11.4068 -11.3840 -11.3206 -11.2789 -11.2027 -11.1633 -11.0753
   -11.0524 -10.9259 -10.8388 -10.7119 -10.4607 -10.3161 -10.3048 -10.2662
   -10.2538 -10.1423 -10.0229  -9.8852  -9.8208  -9.7716  -9.7228  -9.6400
    -9.5547  -9.4345  -9.2468  -9.1644  -9.1153  -8.9813  -8.8922  -8.8466
    -8.7810  -8.6888  -8.6149  -8.5479  -8.5390  -8.5215  -8.4713  -8.4022
    -8.3874  -8.3731  -8.3357  -8.2490  -8.2048  -8.1973  -8.1334  -8.0432
    -7.9838  -7.8732  -7.8637  -7.8184  -7.7839  -7.7669  -7.7305  -7.6557
    -7.6421  -7.6236  -7.5873  -7.5585  -7.5368  -7.5248  -7.4972  -7.4563
    -7.4326  -7.4017  -7.3349  -7.3120  -7.1952  -7.1655  -7.1413  -7.0808
    -7.0230  -6.9982  -6.9751  -6.9003  -6.8830  -6.8420  -6.7997  -6.7715
    -6.7140  -6.6565  -6.5924  -6.5599  -6.4742  -6.4215  -6.2976  -6.2471
    -6.1958  -6.1629  -6.1013  -6.0462  -5.9850  -5.9492  -5.9303  -5.8948
    -5.8461  -5.7915  -5.7504  -5.6818  -5.5435  -5.4958  -5.4017  -5.3684
    -5.3485  -5.2667  -5.1785  -5.1368  -5.1022  -5.0391  -4.9690  -4.9243
    -4.8234  -4.7904  -4.7654  -4.7156  -4.6314  -4.5564  -4.4300  -4.4056
    -4.3216  -4.2772  -4.2499  -4.2301  -4.2079  -4.1515  -4.0796  -3.9069
    -3.8838  -3.8338  -3.7073  -3.5558  -3.4852  -1.5401  -1.3578  -0.5646
     0.0584   0.2047   0.5533   1.2833   1.3507   1.3604   1.4490   1.4624
     1.4728   1.5100   1.5189   1.5425   1.5863   1.6076   1.6513   1.6722
     1.7463   1.7893   1.8196   1.8956

     occupation numbers 
     1.0000   1.0000   1.0000   1.0000   1.0000   1.0000   1.0000   1.0000
     1.0000   1.0000   1.0000   1.0000   1.0000   1.0000   1.0000   1.0000
     1.0000   1.0000   1.0000   1.0000   1.0000   1.0000   1.0000   1.0000
     1.0000   1.0000   1.0000   1.0000   1.0000   1.0000   1.0000   1.0000
     1.0000   1.0000   1.0000   1.0000   1.0000   1.0000   1.0000   1.0000
     1.0000   1.0000   1.0000   1.0000   1.0000   1.0000   1.0000   1.0000
     1.0000   1.0000   1.0000   1.0000   1.0000   1.0000   1.0000   1.0000
     1.0000   1.0000   1.0000   1.0000   1.0000   1.0000   1.0000   1.0000
     1.0000   1.0000   1.0000   1.0000   1.0000   1.0000   1.0000   1.0000
     1.0000   1.0000   1.0000   1.0000   1.0000   1.0000   1.0000   1.0000
     1.0000   1.0000   1.0000   1.0000   1.0000   1.0000   1.0000   1.0000
     1.0000   1.0000   1.0000   1.0000   1.0000   1.0000   1.0000   1.0000
     1.0000   1.0000   1.0000   1.0000   1.0000   1.0000   1.0000   1.0000
     1.0000   1.0000   1.0000   1.0000   1.0000   1.0000   1.0000   1.0000
     1.0000   1.0000   1.0000   1.0000   1.0000   1.0000   1.0000   1.0000
     1.0000   1.0000   1.0000   1.0000   1.0000   1.0000   1.0000   1.0000
     1.0000   1.0000   1.0000   1.0000   1.0000   1.0000   1.0000   1.0000
     1.0000   1.0000   1.0000   1.0000   1.0000   1.0000   1.0000   1.0000
     1.0000   1.0000   1.0000   1.0000   1.0000   1.0000   1.0000   1.0000
     1.0000   1.0000   1.0000   1.0000   1.0000   1.0000   1.0000   1.0000
     1.0000   1.0000   1.0000   1.0000   1.0000   1.0000   1.0000   1.0000
     1.0000   1.0000   1.0000   1.0000   1.0000   1.0000   1.0000   1.0000
     1.0000   1.0000   1.0000   1.0000   1.0000   1.0000   1.0000   1.0000
     1.0000   1.0000   1.0000   1.0000   1.0000   1.0000   1.0000   1.0000
     1.0000   1.0000   1.0000   1.0000   1.0000   1.0000   1.0000   0.0000
     0.0000   0.0000   0.0000   0.0000   0.0000   0.0000   0.0000   0.0000
     0.0000   0.0000   0.0000   0.0000   0.0000   0.0000   0.0000   0.0000
     0.0000   0.0000   0.0000   0.0000

 ------ SPIN DOWN ----------


          k = 0.0000 0.0000 0.0000 (161811 PWs)   bands (ev):

   -57.6544 -34.2510 -34.0856 -33.4110 -21.0254 -20.7002 -20.6951 -20.6700
   -20.6153 -20.6032 -20.3680 -19.9446 -19.9292 -19.9173 -19.8885 -19.8613
   -19.7730 -19.5817 -19.5745 -19.5739 -19.5075 -19.4519 -19.1428 -18.7104
   -18.7082 -18.6914 -18.6873 -18.6831 -18.6716 -18.6419 -18.6212 -18.6059
   -18.5371 -18.4880 -18.3808 -18.2833 -18.2793 -18.2438 -18.1583 -18.1023
   -17.9246 -17.8458 -17.8304 -17.8298 -17.7600 -17.7429 -17.7216 -17.6722
   -17.6519 -17.6173 -17.2439 -17.1203 -12.0687 -12.0621 -12.0520 -12.0224
   -12.0129 -11.9912 -11.9192 -11.8654 -11.8439 -11.7572 -11.6674 -11.5999
   -11.4317 -11.3851 -11.3546 -11.2210 -11.1945 -11.1573 -10.8824 -10.7008
   -10.6918 -10.6879 -10.6721 -10.6643 -10.6381 -10.6285 -10.5272 -10.4982
   -10.3251 -10.2842 -10.0342 -10.0184  -9.9853  -9.8864  -9.7657  -9.6406
    -9.3905  -9.2926  -9.2554  -9.2216  -9.1330  -8.8606  -8.6564  -8.6219
    -8.5942  -8.5910  -8.5402  -8.4955  -8.4903  -8.3448  -8.2045  -8.1987
    -8.1878  -8.1848  -8.1796  -8.1740  -8.1558  -8.1535  -8.1401  -8.1394
    -8.1365  -8.1300  -8.1230  -8.1075  -8.0996  -8.0883  -8.0563  -8.0373
    -7.8628  -7.8104  -7.7946  -7.7148  -7.5090  -7.5063  -7.4727  -7.3439
    -7.2042  -7.1126  -7.0972  -7.0913  -7.0767  -7.0502  -7.0283  -6.9428
    -6.9157  -6.8136  -6.8066  -6.7753  -6.7577  -6.7432  -6.7187  -6.6808
    -6.6662  -6.6422  -6.6224  -6.6195  -6.5886  -6.5698  -6.4919  -6.4787
    -6.3990  -6.3273  -6.3212  -6.2930  -6.2170  -5.9353  -5.8594  -5.6044
    -5.4951  -5.4877  -5.4646  -5.3731  -5.3689  -5.3584  -5.3439  -5.3414
    -5.3237  -5.3224  -5.2901  -5.2720  -5.2631  -5.1483  -5.0989  -5.0419
    -4.9537  -4.7714  -4.7684  -4.7308  -4.7250  -4.7143  -4.5759  -4.4321
    -4.3339  -4.0618  -4.0439  -4.0418  -3.9615  -3.9596  -3.8874  -3.8141
    -3.7891  -3.7812  -3.7584  -3.6068  -3.6010  -0.3143  -0.2192   0.2713
     0.6318   0.8468   0.9853   1.2971   1.4180   1.4245   1.4342   1.4898
     1.5093   1.5155   1.6011   1.6058   1.6262   1.6907   1.7194   1.8091
     1.8732   1.8909   1.9011   1.9203

     occupation numbers 
     1.0000   1.0000   1.0000   1.0000   1.0000   1.0000   1.0000   1.0000
     1.0000   1.0000   1.0000   1.0000   1.0000   1.0000   1.0000   1.0000
     1.0000   1.0000   1.0000   1.0000   1.0000   1.0000   1.0000   1.0000
     1.0000   1.0000   1.0000   1.0000   1.0000   1.0000   1.0000   1.0000
     1.0000   1.0000   1.0000   1.0000   1.0000   1.0000   1.0000   1.0000
     1.0000   1.0000   1.0000   1.0000   1.0000   1.0000   1.0000   1.0000
     1.0000   1.0000   1.0000   1.0000   1.0000   1.0000   1.0000   1.0000
     1.0000   1.0000   1.0000   1.0000   1.0000   1.0000   1.0000   1.0000
     1.0000   1.0000   1.0000   1.0000   1.0000   1.0000   1.0000   1.0000
     1.0000   1.0000   1.0000   1.0000   1.0000   1.0000   1.0000   1.0000
     1.0000   1.0000   1.0000   1.0000   1.0000   1.0000   1.0000   1.0000
     1.0000   1.0000   1.0000   1.0000   1.0000   1.0000   1.0000   1.0000
     1.0000   1.0000   1.0000   1.0000   1.0000   1.0000   1.0000   1.0000
     1.0000   1.0000   1.0000   1.0000   1.0000   1.0000   1.0000   1.0000
     1.0000   1.0000   1.0000   1.0000   1.0000   1.0000   1.0000   1.0000
     1.0000   1.0000   1.0000   1.0000   1.0000   1.0000   1.0000   1.0000
     1.0000   1.0000   1.0000   1.0000   1.0000   1.0000   1.0000   1.0000
     1.0000   1.0000   1.0000   1.0000   1.0000   1.0000   1.0000   1.0000
     1.0000   1.0000   1.0000   1.0000   1.0000   1.0000   1.0000   1.0000
     1.0000   1.0000   1.0000   1.0000   1.0000   1.0000   1.0000   1.0000
     1.0000   1.0000   1.0000   1.0000   1.0000   1.0000   1.0000   1.0000
     1.0000   1.0000   1.0000   1.0000   1.0000   1.0000   1.0000   1.0000
     1.0000   1.0000   1.0000   1.0000   1.0000   1.0000   1.0000   1.0000
     1.0000   1.0000   1.0000   1.0000   1.0000   1.0000   1.0000   1.0000
     1.0000   1.0000   1.0000   1.0000   1.0000   0.0000   0.0000   0.0000
     0.0000   0.0000   0.0000   0.0000   0.0000   0.0000   0.0000   0.0000
     0.0000   0.0000   0.0000   0.0000   0.0000   0.0000   0.0000   0.0000
     0.0000   0.0000   0.0000   0.0000

          k = 0.0000 0.3849 0.0000 (161877 PWs)   bands (ev):

   -57.6544 -34.2510 -34.0856 -33.4110 -20.9887 -20.8639 -20.7311 -20.6567
   -20.4885 -20.4403 -20.2769 -20.2370 -20.1390 -19.9342 -19.8632 -19.8419
   -19.6988 -19.6198 -19.5391 -19.4454 -19.2726 -19.2191 -19.1260 -19.0801
   -19.0077 -18.9590 -18.8183 -18.6900 -18.6806 -18.5770 -18.5184 -18.4887
   -18.3661 -18.3352 -18.2891 -18.2719 -18.2125 -18.1398 -18.0623 -18.0584
   -17.9917 -17.9744 -17.9432 -17.8960 -17.8342 -17.7993 -17.7169 -17.6972
   -17.6122 -17.5231 -17.2458 -17.1088 -12.2044 -12.1329 -12.1265 -12.0303
   -11.9782 -11.8737 -11.8152 -11.7890 -11.7711 -11.5713 -11.5242 -11.5114
   -11.4345 -11.4042 -11.3785 -11.3162 -11.2656 -11.1967 -11.1595 -11.0682
   -11.0482 -10.9134 -10.8113 -10.7044 -10.4335 -10.3132 -10.3006 -10.2628
   -10.2462 -10.1287 -10.0134  -9.8701  -9.8139  -9.7669  -9.7154  -9.6272
    -9.5438  -9.4235  -9.2360  -9.1548  -9.1066  -8.9765  -8.8842  -8.8372
    -8.7760  -8.6822  -8.6046  -8.5423  -8.5329  -8.5163  -8.4579  -8.3970
    -8.3816  -8.3676  -8.3269  -8.2398  -8.2006  -8.1887  -8.1209  -8.0411
    -7.9793  -7.8679  -7.8587  -7.8109  -7.7787  -7.7582  -7.7280  -7.6521
    -7.6289  -7.6163  -7.5825  -7.5523  -7.5288  -7.5187  -7.4946  -7.4479
    -7.4218  -7.3955  -7.3283  -7.3074  -7.1857  -7.1519  -7.1362  -7.0750
    -7.0158  -6.9908  -6.9659  -6.8935  -6.8751  -6.8304  -6.7925  -6.7545
    -6.7033  -6.6514  -6.5813  -6.5480  -6.4629  -6.4139  -6.2938  -6.2345
    -6.1756  -6.1509  -6.0891  -6.0341  -5.9756  -5.9407  -5.9223  -5.8847
    -5.8377  -5.7839  -5.7369  -5.6567  -5.5300  -5.4824  -5.3829  -5.3607
    -5.3312  -5.2518  -5.1600  -5.1284  -5.0919  -5.0217  -4.9425  -4.9100
    -4.8043  -4.7671  -4.7611  -4.6995  -4.6043  -4.5410  -4.4206  -4.3931
    -4.3152  -4.2745  -4.2461  -4.2058  -4.1408  -4.0675  -3.8928  -3.8712
    -3.8270  -3.7491  -3.6862  -3.5405  -3.4524  -0.3159  -0.2190   0.2720
     0.6331   0.8483   0.9866   1.3507   1.3638   1.3777   1.4663   1.4809
     1.5098   1.5232   1.5518   1.5802   1.6131   1.6349   1.6877   1.7670
     1.8056   1.8444   1.8657   1.9240

     occupation numbers 
     1.0000   1.0000   1.0000   1.0000   1.0000   1.0000   1.0000   1.0000
     1.0000   1.0000   1.0000   1.0000   1.0000   1.0000   1.0000   1.0000
     1.0000   1.0000   1.0000   1.0000   1.0000   1.0000   1.0000   1.0000
     1.0000   1.0000   1.0000   1.0000   1.0000   1.0000   1.0000   1.0000
     1.0000   1.0000   1.0000   1.0000   1.0000   1.0000   1.0000   1.0000
     1.0000   1.0000   1.0000   1.0000   1.0000   1.0000   1.0000   1.0000
     1.0000   1.0000   1.0000   1.0000   1.0000   1.0000   1.0000   1.0000
     1.0000   1.0000   1.0000   1.0000   1.0000   1.0000   1.0000   1.0000
     1.0000   1.0000   1.0000   1.0000   1.0000   1.0000   1.0000   1.0000
     1.0000   1.0000   1.0000   1.0000   1.0000   1.0000   1.0000   1.0000
     1.0000   1.0000   1.0000   1.0000   1.0000   1.0000   1.0000   1.0000
     1.0000   1.0000   1.0000   1.0000   1.0000   1.0000   1.0000   1.0000
     1.0000   1.0000   1.0000   1.0000   1.0000   1.0000   1.0000   1.0000
     1.0000   1.0000   1.0000   1.0000   1.0000   1.0000   1.0000   1.0000
     1.0000   1.0000   1.0000   1.0000   1.0000   1.0000   1.0000   1.0000
     1.0000   1.0000   1.0000   1.0000   1.0000   1.0000   1.0000   1.0000
     1.0000   1.0000   1.0000   1.0000   1.0000   1.0000   1.0000   1.0000
     1.0000   1.0000   1.0000   1.0000   1.0000   1.0000   1.0000   1.0000
     1.0000   1.0000   1.0000   1.0000   1.0000   1.0000   1.0000   1.0000
     1.0000   1.0000   1.0000   1.0000   1.0000   1.0000   1.0000   1.0000
     1.0000   1.0000   1.0000   1.0000   1.0000   1.0000   1.0000   1.0000
     1.0000   1.0000   1.0000   1.0000   1.0000   1.0000   1.0000   1.0000
     1.0000   1.0000   1.0000   1.0000   1.0000   1.0000   1.0000   1.0000
     1.0000   1.0000   1.0000   1.0000   1.0000   1.0000   1.0000   1.0000
     1.0000   1.0000   1.0000   1.0000   1.0000   0.0000   0.0000   0.0000
     0.0000   0.0000   0.0000   0.0000   0.0000   0.0000   0.0000   0.0000
     0.0000   0.0000   0.0000   0.0000   0.0000   0.0000   0.0000   0.0000
     0.0000   0.0000   0.0000   0.0000

          k = 0.3333 0.5774 0.0000 (161838 PWs)   bands (ev):

   -57.6544 -34.2510 -34.0856 -33.4110 -20.9373 -20.9245 -20.8004 -20.5273
   -20.5131 -20.4329 -20.1920 -20.1799 -20.1715 -20.0964 -20.0679 -19.8389
   -19.4983 -19.4837 -19.4816 -19.3880 -19.3613 -19.2652 -19.1261 -19.1019
   -19.0361 -18.8640 -18.8588 -18.8564 -18.7783 -18.7187 -18.5053 -18.3169
   -18.2989 -18.2843 -18.1995 -18.1912 -18.1661 -18.1178 -18.0700 -18.0554
   -17.9910 -17.9853 -17.9788 -17.9552 -17.9358 -17.8924 -17.7444 -17.6291
   -17.6019 -17.5141 -17.2432 -17.1034 -12.2449 -12.2147 -12.2032 -11.8579
   -11.7857 -11.7600 -11.7378 -11.7256 -11.7225 -11.6349 -11.6006 -11.5735
   -11.5569 -11.5182 -11.5064 -11.4188 -11.3535 -11.2314 -11.0971 -10.9112
   -10.7808 -10.7728 -10.7544 -10.7189 -10.6598 -10.6164 -10.6111 -10.4191
   -10.1815  -9.8865  -9.7968  -9.7691  -9.6304  -9.5747  -9.5404  -9.4284
    -9.3333  -9.3298  -9.2850  -9.2068  -9.1623  -9.1284  -9.1153  -9.0914
    -9.0661  -9.0419  -8.9451  -8.8214  -8.6625  -8.4628  -8.4543  -8.3208
    -8.2764  -8.0457  -8.0016  -7.9985  -7.9722  -7.9534  -7.9412  -7.9216
    -7.9072  -7.8861  -7.8586  -7.8467  -7.8219  -7.8053  -7.7766  -7.7515
    -7.7386  -7.7218  -7.5919  -7.5737  -7.4994  -7.4553  -7.4403  -7.4285
    -7.3831  -7.3466  -7.3142  -7.3091  -7.3069  -7.2751  -7.2527  -7.1916
    -7.1483  -7.1416  -7.1155  -7.0926  -6.9230  -6.7908  -6.7123  -6.5580
    -6.5182  -6.4928  -6.4740  -6.4660  -6.4118  -6.3713  -6.3533  -6.2578
    -6.2145  -6.2131  -6.1703  -6.0564  -6.0086  -5.9676  -5.9114  -5.8930
    -5.7979  -5.6466  -5.6146  -5.6066  -5.6047  -5.5542  -5.5319  -5.4850
    -5.4624  -5.3192  -5.2416  -5.1605  -5.0733  -4.8594  -4.8153  -4.8084
    -4.7521  -4.7150  -4.6140  -4.6051  -4.5773  -4.5417  -4.4506  -4.3932
    -4.2955  -4.2873  -4.2746  -4.2500  -4.2296  -4.2030  -4.0619  -3.9366
    -3.7704  -3.7190  -3.6363  -3.5415  -3.3938  -0.3160  -0.2178   0.2723
     0.6345   0.8470   0.9834   1.2960   1.3698   1.3734   1.4238   1.4500
     1.4641   1.5062   1.5242   1.5541   1.6395   1.8416   1.8613   1.8686
     1.9086   1.9260   1.9380   1.9550

     occupation numbers 
     1.0000   1.0000   1.0000   1.0000   1.0000   1.0000   1.0000   1.0000
     1.0000   1.0000   1.0000   1.0000   1.0000   1.0000   1.0000   1.0000
     1.0000   1.0000   1.0000   1.0000   1.0000   1.0000   1.0000   1.0000
     1.0000   1.0000   1.0000   1.0000   1.0000   1.0000   1.0000   1.0000
     1.0000   1.0000   1.0000   1.0000   1.0000   1.0000   1.0000   1.0000
     1.0000   1.0000   1.0000   1.0000   1.0000   1.0000   1.0000   1.0000
     1.0000   1.0000   1.0000   1.0000   1.0000   1.0000   1.0000   1.0000
     1.0000   1.0000   1.0000   1.0000   1.0000   1.0000   1.0000   1.0000
     1.0000   1.0000   1.0000   1.0000   1.0000   1.0000   1.0000   1.0000
     1.0000   1.0000   1.0000   1.0000   1.0000   1.0000   1.0000   1.0000
     1.0000   1.0000   1.0000   1.0000   1.0000   1.0000   1.0000   1.0000
     1.0000   1.0000   1.0000   1.0000   1.0000   1.0000   1.0000   1.0000
     1.0000   1.0000   1.0000   1.0000   1.0000   1.0000   1.0000   1.0000
     1.0000   1.0000   1.0000   1.0000   1.0000   1.0000   1.0000   1.0000
     1.0000   1.0000   1.0000   1.0000   1.0000   1.0000   1.0000   1.0000
     1.0000   1.0000   1.0000   1.0000   1.0000   1.0000   1.0000   1.0000
     1.0000   1.0000   1.0000   1.0000   1.0000   1.0000   1.0000   1.0000
     1.0000   1.0000   1.0000   1.0000   1.0000   1.0000   1.0000   1.0000
     1.0000   1.0000   1.0000   1.0000   1.0000   1.0000   1.0000   1.0000
     1.0000   1.0000   1.0000   1.0000   1.0000   1.0000   1.0000   1.0000
     1.0000   1.0000   1.0000   1.0000   1.0000   1.0000   1.0000   1.0000
     1.0000   1.0000   1.0000   1.0000   1.0000   1.0000   1.0000   1.0000
     1.0000   1.0000   1.0000   1.0000   1.0000   1.0000   1.0000   1.0000
     1.0000   1.0000   1.0000   1.0000   1.0000   1.0000   1.0000   1.0000
     1.0000   1.0000   1.0000   1.0000   1.0000   0.0000   0.0000   0.0000
     0.0000   0.0000   0.0000   0.0000   0.0000   0.0000   0.0000   0.0000
     0.0000   0.0000   0.0000   0.0000   0.0000   0.0000   0.0000   0.0000
     0.0000   0.0000   0.0000   0.0000

          k =-0.3333 0.1925 0.0000 (161877 PWs)   bands (ev):

   -57.6544 -34.2510 -34.0856 -33.4110 -20.9906 -20.8527 -20.7465 -20.6584
   -20.4824 -20.4373 -20.2613 -20.2393 -20.1469 -19.9397 -19.8810 -19.8427
   -19.7167 -19.5715 -19.5396 -19.4505 -19.2895 -19.1984 -19.1176 -19.0798
   -18.9809 -18.9778 -18.8552 -18.7129 -18.6731 -18.5845 -18.5317 -18.4705
   -18.3782 -18.3025 -18.2945 -18.2292 -18.2133 -18.1412 -18.0647 -18.0456
   -17.9858 -17.9732 -17.9500 -17.9326 -17.8649 -17.7972 -17.7190 -17.6580
   -17.6046 -17.5470 -17.2388 -17.1104 -12.2138 -12.1251 -12.1147 -12.0393
   -11.9974 -11.8738 -11.8271 -11.7743 -11.7491 -11.5750 -11.5138 -11.4463
   -11.4369 -11.3965 -11.3892 -11.3437 -11.3004 -11.1979 -11.1420 -11.1123
   -11.0341 -10.9523 -10.7778 -10.7565 -10.4277 -10.3199 -10.2937 -10.2423
   -10.2417 -10.0466 -10.0042  -9.8866  -9.8275  -9.7405  -9.7244  -9.6458
    -9.5525  -9.3841  -9.2173  -9.1894  -9.1208  -8.9769  -8.9681  -8.8034
    -8.7756  -8.7088  -8.6473  -8.5549  -8.5419  -8.4839  -8.4358  -8.4255
    -8.3832  -8.3584  -8.2938  -8.2472  -8.2179  -8.1171  -8.0707  -8.0366
    -8.0245  -7.8795  -7.8681  -7.8034  -7.7788  -7.7686  -7.6806  -7.6428
    -7.6377  -7.6215  -7.5862  -7.5427  -7.5280  -7.5243  -7.4908  -7.4380
    -7.4360  -7.3964  -7.3386  -7.2976  -7.2156  -7.1512  -7.1269  -7.0536
    -7.0413  -6.9866  -6.9494  -6.9485  -6.8654  -6.8530  -6.7859  -6.7150
    -6.6855  -6.6584  -6.5775  -6.5416  -6.4672  -6.4183  -6.3245  -6.2579
    -6.1984  -6.1464  -6.1221  -5.9794  -5.9735  -5.9667  -5.9165  -5.8688
    -5.8350  -5.7992  -5.6730  -5.6284  -5.5289  -5.4889  -5.3976  -5.3413
    -5.3299  -5.2471  -5.1726  -5.1691  -5.0676  -5.0638  -4.9604  -4.8794
    -4.8042  -4.7995  -4.7203  -4.7136  -4.5812  -4.5728  -4.3979  -4.3823
    -4.3050  -4.2674  -4.2444  -4.2193  -4.1223  -4.0529  -3.9367  -3.8900
    -3.8215  -3.7626  -3.6981  -3.4868  -3.4748  -0.3150  -0.2175   0.2718
     0.6337   0.8507   0.9839   1.3486   1.3568   1.3892   1.4603   1.4729
     1.5109   1.5342   1.5633   1.5912   1.6209   1.6370   1.6700   1.7389
     1.8123   1.8552   1.8608   1.9279

     occupation numbers 
     1.0000   1.0000   1.0000   1.0000   1.0000   1.0000   1.0000   1.0000
     1.0000   1.0000   1.0000   1.0000   1.0000   1.0000   1.0000   1.0000
     1.0000   1.0000   1.0000   1.0000   1.0000   1.0000   1.0000   1.0000
     1.0000   1.0000   1.0000   1.0000   1.0000   1.0000   1.0000   1.0000
     1.0000   1.0000   1.0000   1.0000   1.0000   1.0000   1.0000   1.0000
     1.0000   1.0000   1.0000   1.0000   1.0000   1.0000   1.0000   1.0000
     1.0000   1.0000   1.0000   1.0000   1.0000   1.0000   1.0000   1.0000
     1.0000   1.0000   1.0000   1.0000   1.0000   1.0000   1.0000   1.0000
     1.0000   1.0000   1.0000   1.0000   1.0000   1.0000   1.0000   1.0000
     1.0000   1.0000   1.0000   1.0000   1.0000   1.0000   1.0000   1.0000
     1.0000   1.0000   1.0000   1.0000   1.0000   1.0000   1.0000   1.0000
     1.0000   1.0000   1.0000   1.0000   1.0000   1.0000   1.0000   1.0000
     1.0000   1.0000   1.0000   1.0000   1.0000   1.0000   1.0000   1.0000
     1.0000   1.0000   1.0000   1.0000   1.0000   1.0000   1.0000   1.0000
     1.0000   1.0000   1.0000   1.0000   1.0000   1.0000   1.0000   1.0000
     1.0000   1.0000   1.0000   1.0000   1.0000   1.0000   1.0000   1.0000
     1.0000   1.0000   1.0000   1.0000   1.0000   1.0000   1.0000   1.0000
     1.0000   1.0000   1.0000   1.0000   1.0000   1.0000   1.0000   1.0000
     1.0000   1.0000   1.0000   1.0000   1.0000   1.0000   1.0000   1.0000
     1.0000   1.0000   1.0000   1.0000   1.0000   1.0000   1.0000   1.0000
     1.0000   1.0000   1.0000   1.0000   1.0000   1.0000   1.0000   1.0000
     1.0000   1.0000   1.0000   1.0000   1.0000   1.0000   1.0000   1.0000
     1.0000   1.0000   1.0000   1.0000   1.0000   1.0000   1.0000   1.0000
     1.0000   1.0000   1.0000   1.0000   1.0000   1.0000   1.0000   1.0000
     1.0000   1.0000   1.0000   1.0000   1.0000   0.0000   0.0000   0.0000
     0.0000   0.0000   0.0000   0.0000   0.0000   0.0000   0.0000   0.0000
     0.0000   0.0000   0.0000   0.0000   0.0000   0.0000   0.0000   0.0000
     0.0000   0.0000   0.0000   0.0000

          k = 0.3333 0.1925 0.0000 (161877 PWs)   bands (ev):

   -57.6544 -34.2510 -34.0856 -33.4110 -20.9891 -20.8626 -20.7311 -20.6592
   -20.4869 -20.4403 -20.2773 -20.2359 -20.1387 -19.9342 -19.8645 -19.8431
   -19.6980 -19.6212 -19.5377 -19.4448 -19.2722 -19.2200 -19.1249 -19.0792
   -19.0077 -18.9591 -18.8183 -18.6914 -18.6819 -18.5769 -18.5183 -18.4891
   -18.3648 -18.3361 -18.2877 -18.2727 -18.2125 -18.1402 -18.0620 -18.0574
   -17.9909 -17.9726 -17.9440 -17.8966 -17.8352 -17.7997 -17.7187 -17.6961
   -17.6120 -17.5229 -17.2456 -17.1089 -12.2042 -12.1330 -12.1257 -12.0318
   -11.9795 -11.8731 -11.8147 -11.7889 -11.7710 -11.5706 -11.5238 -11.5109
   -11.4342 -11.4040 -11.3782 -11.3162 -11.2674 -11.1964 -11.1589 -11.0688
   -11.0484 -10.9160 -10.8114 -10.7032 -10.4325 -10.3128 -10.3007 -10.2628
   -10.2457 -10.1282 -10.0138  -9.8701  -9.8135  -9.7671  -9.7164  -9.6273
    -9.5446  -9.4227  -9.2359  -9.1542  -9.1067  -8.9758  -8.8842  -8.8368
    -8.7755  -8.6823  -8.6048  -8.5427  -8.5346  -8.5173  -8.4577  -8.3975
    -8.3810  -8.3665  -8.3278  -8.2401  -8.1996  -8.1889  -8.1228  -8.0400
    -7.9789  -7.8669  -7.8584  -7.8111  -7.7786  -7.7585  -7.7283  -7.6502
    -7.6286  -7.6163  -7.5818  -7.5535  -7.5285  -7.5185  -7.4946  -7.4481
    -7.4206  -7.3957  -7.3282  -7.3087  -7.1850  -7.1535  -7.1349  -7.0758
    -7.0171  -6.9916  -6.9673  -6.8935  -6.8753  -6.8307  -6.7930  -6.7542
    -6.7029  -6.6496  -6.5804  -6.5465  -6.4634  -6.4128  -6.2946  -6.2325
    -6.1783  -6.1507  -6.0891  -6.0349  -5.9749  -5.9402  -5.9239  -5.8850
    -5.8374  -5.7810  -5.7394  -5.6562  -5.5300  -5.4815  -5.3845  -5.3613
    -5.3302  -5.2532  -5.1603  -5.1283  -5.0911  -5.0216  -4.9441  -4.9095
    -4.8047  -4.7668  -4.7601  -4.6969  -4.6039  -4.5427  -4.4206  -4.3925
    -4.3149  -4.2725  -4.2465  -4.2059  -4.1425  -4.0678  -3.8942  -3.8722
    -3.8264  -3.7516  -3.6832  -3.5395  -3.4530  -0.3158  -0.2191   0.2720
     0.6332   0.8481   0.9869   1.3508   1.3643   1.3775   1.4652   1.4803
     1.5102   1.5239   1.5519   1.5798   1.6126   1.6342   1.6885   1.7684
     1.8044   1.8451   1.8660   1.9231

     occupation numbers 
     1.0000   1.0000   1.0000   1.0000   1.0000   1.0000   1.0000   1.0000
     1.0000   1.0000   1.0000   1.0000   1.0000   1.0000   1.0000   1.0000
     1.0000   1.0000   1.0000   1.0000   1.0000   1.0000   1.0000   1.0000
     1.0000   1.0000   1.0000   1.0000   1.0000   1.0000   1.0000   1.0000
     1.0000   1.0000   1.0000   1.0000   1.0000   1.0000   1.0000   1.0000
     1.0000   1.0000   1.0000   1.0000   1.0000   1.0000   1.0000   1.0000
     1.0000   1.0000   1.0000   1.0000   1.0000   1.0000   1.0000   1.0000
     1.0000   1.0000   1.0000   1.0000   1.0000   1.0000   1.0000   1.0000
     1.0000   1.0000   1.0000   1.0000   1.0000   1.0000   1.0000   1.0000
     1.0000   1.0000   1.0000   1.0000   1.0000   1.0000   1.0000   1.0000
     1.0000   1.0000   1.0000   1.0000   1.0000   1.0000   1.0000   1.0000
     1.0000   1.0000   1.0000   1.0000   1.0000   1.0000   1.0000   1.0000
     1.0000   1.0000   1.0000   1.0000   1.0000   1.0000   1.0000   1.0000
     1.0000   1.0000   1.0000   1.0000   1.0000   1.0000   1.0000   1.0000
     1.0000   1.0000   1.0000   1.0000   1.0000   1.0000   1.0000   1.0000
     1.0000   1.0000   1.0000   1.0000   1.0000   1.0000   1.0000   1.0000
     1.0000   1.0000   1.0000   1.0000   1.0000   1.0000   1.0000   1.0000
     1.0000   1.0000   1.0000   1.0000   1.0000   1.0000   1.0000   1.0000
     1.0000   1.0000   1.0000   1.0000   1.0000   1.0000   1.0000   1.0000
[...]
     atom   36 type  1   force =     0.00000000    0.00000000    0.00000000
     atom   37 type  1   force =     0.00000000    0.00000000    0.00000000
     atom   38 type  1   force =     0.00000000    0.00000000    0.00000000
     atom   39 type  1   force =     0.00000000    0.00000000    0.00000000
     atom   40 type  1   force =     0.00000000    0.00000000    0.00000000
     atom   41 type  1   force =     0.00000000    0.00000000    0.00000000
     atom   42 type  1   force =     0.00000000    0.00000000    0.00000000
     atom   43 type  1   force =     0.00000000    0.00000000    0.00000000
     atom   44 type  1   force =     0.00000000    0.00000000    0.00000000
     atom   45 type  1   force =     0.00000000    0.00000000    0.00000000
     atom   46 type  1   force =     0.00000000    0.00000000    0.00000000
     atom   47 type  1   force =     0.00000000    0.00000000    0.00000000
     atom   48 type  1   force =     0.00000000    0.00000000    0.00000000
     atom   49 type  2   force =     0.00000000    0.00000000    0.00000000
     atom   50 type  2   force =     0.00000000    0.00000000    0.00000000
     atom   51 type  2   force =     0.00000000    0.00000000    0.00000000
     atom   52 type  2   force =     0.00000000    0.00000000    0.00000000
     atom   53 type  2   force =     0.00000000    0.00000000    0.00000000
     atom   54 type  2   force =     0.00000000    0.00000000    0.00000000
     atom   55 type  2   force =     0.00000000    0.00000000    0.00000000
     atom   56 type  2   force =     0.00000000    0.00000000    0.00000000
     atom   57 type  2   force =     0.00000000    0.00000000    0.00000000
     atom   58 type  2   force =     0.00000000    0.00000000    0.00000000
     atom   59 type  2   force =     0.00000000    0.00000000    0.00000000
     atom   60 type  2   force =     0.00000000    0.00000000    0.00000000
     atom   61 type  2   force =     0.00000000    0.00000000    0.00000000
     atom   62 type  2   force =     0.00000000    0.00000000    0.00000000
     atom   63 type  2   force =     0.00000000    0.00000000    0.00000000
     atom   64 type  2   force =     0.00000000    0.00000000    0.00000000
     atom   65 type  2   force =     0.00000000    0.00000000    0.00000000
     atom   66 type  2   force =     0.00000000    0.00000000    0.00000000
     atom   67 type  2   force =     0.00000000    0.00000000    0.00000000
     atom   68 type  2   force =     0.00000000    0.00000000    0.00000000
     atom   69 type  2   force =     0.00000000    0.00000000    0.00000000
     atom   70 type  2   force =     0.00000000    0.00000000    0.00000000
     atom   71 type  2   force =     0.00000000    0.00000000    0.00000000
     atom   72 type  2   force =     0.00000000    0.00000000    0.00000000
     atom   73 type  2   force =     0.00000000    0.00000000    0.00000000
     atom   74 type  2   force =     0.00000000    0.00000000    0.00000000
     atom   75 type  2   force =     0.00000000    0.00000000    0.00000000
     atom   76 type  2   force =     0.00000000    0.00000000    0.00000000
     atom   77 type  2   force =     0.00000000    0.00000000    0.00000000
     atom   78 type  2   force =     0.00000000    0.00000000    0.00000000
     atom   79 type  2   force =     0.00000000    0.00000000    0.00000000
     atom   80 type  2   force =     0.00000000    0.00000000    0.00000000
     atom   81 type  2   force =     0.00000000    0.00000000    0.00000000
     atom   82 type  2   force =     0.00000000    0.00000000    0.00000000
     atom   83 type  2   force =     0.00000000    0.00000000    0.00000000
     atom   84 type  2   force =     0.00000000    0.00000000    0.00000000
     atom   85 type  2   force =     0.00000000    0.00000000    0.00000000
     atom   86 type  2   force =     0.00000000    0.00000000    0.00000000
     atom   87 type  2   force =     0.00000000    0.00000000    0.00000000
     atom   88 type  2   force =     0.00000000    0.00000000    0.00000000
     atom   89 type  2   force =     0.00000000    0.00000000    0.00000000
     atom   90 type  2   force =     0.00000000    0.00000000    0.00000000
     atom   91 type  2   force =     0.00000000    0.00000000    0.00000000
     atom   92 type  2   force =     0.00000000    0.00000000    0.00000000
     atom   93 type  2   force =     0.00000000    0.00000000    0.00000000
     atom   94 type  2   force =     0.00000000    0.00000000    0.00000000
     atom   95 type  2   force =     0.00000000    0.00000000    0.00000000
     atom   96 type  2   force =     0.00000000    0.00000000    0.00000000
     atom   97 type  3   force =     0.00000000    0.00000000    0.00000000
     The SCF correction term to forces
     atom    1 type  1   force =     0.00000293    0.00000091    0.00000112
     atom    2 type  1   force =     0.00000321   -0.00000083    0.00000110
     atom    3 type  1   force =    -0.00000080   -0.00000005    0.00000101
     atom    4 type  1   force =    -0.00000053    0.00000048    0.00000111
     atom    5 type  1   force =    -0.00000064   -0.00000193    0.00000098
     atom    6 type  1   force =    -0.00000353   -0.00000217    0.00000092
     atom    7 type  1   force =    -0.00000317    0.00000203    0.00000098
     atom    8 type  1   force =     0.00000031    0.00000526    0.00000127
     atom    9 type  1   force =     0.00000469   -0.00000159    0.00000133
     atom   10 type  1   force =     0.00000218   -0.00000136    0.00000123
     atom   11 type  1   force =     0.00000079    0.00000065    0.00000129
     atom   12 type  1   force =     0.00000037    0.00000022    0.00000129
     atom   13 type  1   force =     0.00000247   -0.00000140    0.00000098
     atom   14 type  1   force =     0.00000019    0.00000450    0.00000092
     atom   15 type  1   force =    -0.00000118    0.00000415    0.00000101
     atom   16 type  1   force =    -0.00000016    0.00000424    0.00000158
     atom   17 type  1   force =     0.00000382   -0.00001030    0.00000008
     atom   18 type  1   force =    -0.00000655   -0.00000045   -0.00000001
     atom   19 type  1   force =    -0.00000023   -0.00000071    0.00000135
     atom   20 type  1   force =    -0.00000020   -0.00000042    0.00000127
     atom   21 type  1   force =     0.00000127    0.00000190    0.00000098
     atom   22 type  1   force =    -0.00000145    0.00000159    0.00000095
     atom   23 type  1   force =    -0.00000312    0.00000552    0.00000163
     atom   24 type  1   force =     0.00000276   -0.00000847    0.00000284
     atom   25 type  1   force =    -0.00000988    0.00000565   -0.00000052
     atom   26 type  1   force =    -0.00000147   -0.00000009    0.00000110
     atom   27 type  1   force =    -0.00000088    0.00000059    0.00000106
     atom   28 type  1   force =    -0.00000038    0.00000140    0.00000090
     atom   29 type  1   force =    -0.00000173    0.00000165    0.00000107
     atom   30 type  1   force =    -0.00000447    0.00000036    0.00000199
     atom   31 type  1   force =     0.00000900   -0.00000513    0.00000168
     atom   32 type  1   force =     0.00001283    0.00000689   -0.00000112
     atom   33 type  1   force =     0.00000166    0.00000205    0.00000074
     atom   34 type  1   force =    -0.00000077    0.00000146    0.00000092
     atom   35 type  1   force =    -0.00000187    0.00000105    0.00000095
     atom   36 type  1   force =    -0.00000146    0.00000071    0.00000086
     atom   37 type  1   force =    -0.00000210    0.00000010    0.00000103
     atom   38 type  1   force =    -0.00000324   -0.00000107    0.00000126
     atom   39 type  1   force =     0.00000040    0.00000090    0.00000102
     atom   40 type  1   force =     0.00000473   -0.00000077    0.00000103
     atom   41 type  1   force =     0.00000235   -0.00000139    0.00000099
     atom   42 type  1   force =     0.00000162   -0.00000067    0.00000108
     atom   43 type  1   force =    -0.00000159    0.00000112    0.00000097
     atom   44 type  1   force =    -0.00000118   -0.00000050    0.00000090
     atom   45 type  1   force =    -0.00000160    0.00000029    0.00000090
     atom   46 type  1   force =    -0.00000306   -0.00000074    0.00000091
     atom   47 type  1   force =    -0.00000362   -0.00000191    0.00000117
     atom   48 type  1   force =     0.00000111   -0.00000235    0.00000105
     atom   49 type  2   force =     0.00000049    0.00000590    0.00000215
     atom   50 type  2   force =     0.00000838   -0.00000060    0.00000251
     atom   51 type  2   force =     0.00000330   -0.00000004    0.00000248
     atom   52 type  2   force =    -0.00000035    0.00000205    0.00000229
     atom   53 type  2   force =     0.00000090   -0.00000022    0.00000318
     atom   54 type  2   force =     0.00000019   -0.00000513    0.00000187
     atom   55 type  2   force =    -0.00000512    0.00000340    0.00000189
     atom   56 type  2   force =    -0.00000133    0.00001067    0.00000196
     atom   57 type  2   force =     0.00000346    0.00000454    0.00000364
     atom   58 type  2   force =     0.00000648   -0.00000672    0.00000295
     atom   59 type  2   force =     0.00000035    0.00000108    0.00000288
     atom   60 type  2   force =     0.00000165    0.00000143    0.00000285
     atom   61 type  2   force =     0.00000352   -0.00000200    0.00000308
     atom   62 type  2   force =     0.00000457    0.00000299    0.00000186
     atom   63 type  2   force =    -0.00000071    0.00000514    0.00000160
     atom   64 type  2   force =    -0.00000442    0.00000855    0.00000287
     atom   65 type  2   force =     0.00000685   -0.00001019    0.00000389
     atom   66 type  2   force =    -0.00001489   -0.00001942   -0.00000343
     atom   67 type  2   force =    -0.00001363    0.00000272    0.00000192
     atom   68 type  2   force =    -0.00000191   -0.00000194    0.00000269
     atom   69 type  2   force =     0.00000031   -0.00000020    0.00000310
     atom   70 type  2   force =    -0.00000142    0.00000212    0.00000220
     atom   71 type  2   force =    -0.00000362    0.00000584    0.00000217
     atom   72 type  2   force =    -0.00000568    0.00000192    0.00000575
     atom   73 type  2   force =    -0.00000095    0.00001805   -0.00000347
     atom   74 type  2   force =    -0.00000597    0.00000437    0.00000188
     atom   75 type  2   force =    -0.00000295    0.00000023    0.00000211
     atom   76 type  2   force =    -0.00000250    0.00000263    0.00000223
     atom   77 type  2   force =    -0.00000167    0.00000242    0.00000186
     atom   78 type  2   force =    -0.00000610    0.00000229    0.00000269
     atom   79 type  2   force =     0.00000100   -0.00000586    0.00000418
     atom   80 type  2   force =     0.00001870    0.00000546    0.00000131
     atom   81 type  2   force =     0.00001079    0.00000689    0.00000151
     atom   82 type  2   force =     0.00000100   -0.00000033    0.00000205
     atom   83 type  2   force =    -0.00000012   -0.00000056    0.00000225
     atom   84 type  2   force =    -0.00000370    0.00000207    0.00000202
     atom   85 type  2   force =    -0.00000295   -0.00000030    0.00000183
     atom   86 type  2   force =    -0.00000503   -0.00000113    0.00000193
     atom   87 type  2   force =    -0.00000321    0.00000075    0.00000228
     atom   88 type  2   force =     0.00000112   -0.00000044    0.00000320
     atom   89 type  2   force =     0.00000538   -0.00000489    0.00000221
     atom   90 type  2   force =     0.00000532   -0.00000239    0.00000221
     atom   91 type  2   force =     0.00000122    0.00000080    0.00000233
     atom   92 type  2   force =    -0.00000270    0.00000072    0.00000226
     atom   93 type  2   force =    -0.00000194    0.00000004    0.00000223
     atom   94 type  2   force =    -0.00000383   -0.00000174    0.00000151
     atom   95 type  2   force =    -0.00000849   -0.00000303    0.00000187
     atom   96 type  2   force =    -0.00000396   -0.00000247    0.00000202
     atom   97 type  3   force =     0.00002877   -0.00005959    0.00001633

     Total force =     0.002500     Total SCF correction =     0.000095

     BFGS Geometry Optimization

     bfgs converged in   1 scf cycles and   0 bfgs steps
     (criteria: energy <  1.0E-05 Ry, force <  1.0E-03 Ry/Bohr)

     End of BFGS Geometry Optimization

     Final energy   =   -1350.4154160489 Ry
Begin final coordinates

ATOMIC_POSITIONS (crystal)
B        0.047240546   0.094513103   0.495573429
B        0.047093767   0.237443765   0.495284109
B        0.047080906   0.380369632   0.495831935
B        0.047274904   0.523279557   0.495974896
B        0.047487059   0.666085584   0.496168175
B        0.047505120   0.808935335   0.496751655
B        0.047448824   0.951777031   0.496329957
B        0.190367334   0.094729150   0.497804897
B        0.189478628   0.236816676   0.499332777
B        0.189595900   0.380109335   0.501309250
B        0.189951273   0.523091827   0.500610861
B        0.190481300   0.666013681   0.498311379
B        0.190381727   0.808874644   0.496453123
B        0.190318998   0.951781380   0.496482345
B        0.333123628   0.094670181   0.498041923
B        0.333426320   0.237718458   0.503933767
B        0.330723400   0.379308576   0.512666853
B        0.332299970   0.522179320   0.514581136
B        0.333521561   0.665725248   0.504884438
B        0.333283119   0.808798302   0.498369009
B        0.333155983   0.951760512   0.496180895
B        0.475942356   0.094898732   0.496023821
B        0.475883444   0.237844583   0.500476032
B        0.477940642   0.381889931   0.514807889
B        0.477012559   0.666834416   0.513547912
B        0.476171617   0.809264295   0.500457506
B        0.475985345   0.951990763   0.496031935
B        0.618749595   0.094862525   0.494778387
B        0.618689289   0.237604051   0.496136518
B        0.618959603   0.380270918   0.502372190
B        0.617400347   0.521279319   0.514207020
B        0.619935888   0.668460761   0.511607232
B        0.619149219   0.809615382   0.500955803
B        0.618854670   0.952129955   0.495952225
B        0.761624556   0.094869966   0.494103758
B        0.761567786   0.237710498   0.494130398
B        0.761653498   0.380581177   0.496061613
B        0.761463488   0.523375126   0.500417768
B        0.761604799   0.665842993   0.504176243
B        0.762493993   0.809799470   0.499757905
B        0.761832260   0.952141987   0.495667859
B        0.904495402   0.094778041   0.494292583
B        0.904344419   0.237610830   0.493883272
B        0.904401011   0.380528462   0.494510162
B        0.904403875   0.523355902   0.495956823
B        0.904611826   0.666172555   0.498345470
B        0.904550406   0.808886112   0.498504192
B        0.904807683   0.952062124   0.496040124
N        0.095080242   0.047030947   0.496173645
N        0.094498122   0.189490355   0.495891830
N        0.094434341   0.332556887   0.496617216
N        0.094639880   0.475576554   0.496787676
N        0.095063256   0.618499632   0.496417152
N        0.095079865   0.761310196   0.496305659
N        0.095085720   0.904165219   0.496501161
N        0.237957294   0.047080634   0.497320252
N        0.238057006   0.189954784   0.500463966
N        0.236186042   0.331301567   0.502841093
N        0.236941656   0.475266096   0.504420428
N        0.237954497   0.618394448   0.501497603
N        0.237979547   0.761305965   0.497478724
N        0.237918353   0.904176431   0.496223117
N        0.380751801   0.047156820   0.496416425
N        0.380848046   0.190099910   0.500987942
N        0.381764362   0.333489877   0.510991984
N        0.375144977   0.471593721   0.525697943
N        0.380984610   0.618210984   0.512396455
N        0.380878347   0.761296115   0.501602330
N        0.380764289   0.904204490   0.496514108
N        0.523549467   0.047346935   0.495266230
N        0.523504062   0.190298623   0.496877028
N        0.523727674   0.333526519   0.504826907
N        0.527539795   0.623827849   0.523470594
N        0.523980721   0.762233770   0.503771796
N        0.523657600   0.904576144   0.496720804
N        0.666430570   0.047398483   0.494779566
N        0.666317734   0.190142969   0.494656397
N        0.666319449   0.332928642   0.497319801
N        0.665768096   0.475515692   0.504523096
N        0.665781787   0.617444982   0.510643885
N        0.667993247   0.763061073   0.502531310
N        0.666702440   0.904794859   0.496736365
N        0.809338634   0.047332904   0.494248434
N        0.809132267   0.190104267   0.493698623
N        0.809129685   0.332966616   0.494425180
N        0.809013578   0.475774690   0.496919841
N        0.809195301   0.618418579   0.501223976
N        0.809341872   0.761203861   0.501176752
N        0.809829651   0.904780105   0.496545449
N        0.952162543   0.047137508   0.495134446
N        0.951904358   0.189932262   0.493968128
N        0.951815636   0.332802601   0.494416075
N        0.951934866   0.475736182   0.495106835
N        0.952104061   0.618534947   0.496398382
N        0.952204408   0.761319101   0.497887063
N        0.952214214   0.904155512   0.496726886
Ti       0.489903684   0.510180093   0.576373992
End final coordinates



     Writing output data file BN.save
 
     init_run     :      4.94s CPU      5.60s WALL (       1 calls)
     electrons    :    135.19s CPU    159.18s WALL (       1 calls)
     forces       :      2.77s CPU      3.54s WALL (       1 calls)

     Called by init_run:
     wfcinit      :      2.51s CPU      2.77s WALL (       1 calls)
     wfcinit:atom :      0.02s CPU      0.03s WALL (       1 calls)
     wfcinit:wfcr :      2.41s CPU      2.60s WALL (       1 calls)
     potinit      :      0.55s CPU      0.60s WALL (       1 calls)

     Called by electrons:
     c_bands      :     99.77s CPU    107.37s WALL (      19 calls)
     sum_band     :     18.19s CPU     25.32s WALL (      19 calls)
     v_of_rho     :      3.25s CPU      3.55s WALL (      20 calls)
     v_h          :      0.12s CPU      0.12s WALL (      20 calls)
     v_xc         :      3.13s CPU      3.42s WALL (      20 calls)
     mix_rho      :      1.32s CPU      1.38s WALL (      19 calls)

     Called by c_bands:
     init_us_2    :      1.39s CPU      1.45s WALL (      39 calls)
     cegterg      :     94.50s CPU    100.24s WALL (      19 calls)

     Called by sum_band:

     Called by *egterg:
     h_psi        :     58.63s CPU     59.70s WALL (     132 calls)
     g_psi        :      0.29s CPU      0.29s WALL (     112 calls)
     cdiaghg      :      8.41s CPU     10.55s WALL (     131 calls)
     cegterg:over :     10.34s CPU     10.41s WALL (     112 calls)
     cegterg:upda :     12.24s CPU     12.44s WALL (     112 calls)
     cegterg:last :      3.57s CPU      3.61s WALL (      19 calls)
     cdiaghg:chol :      0.38s CPU      0.54s WALL (     131 calls)
     cdiaghg:inve :      0.03s CPU      0.04s WALL (     131 calls)
     cdiaghg:para :      1.04s CPU      1.27s WALL (     262 calls)

     Called by h_psi:
     h_psi:pot    :     57.75s CPU     58.82s WALL (     132 calls)
     h_psi:calbec :     12.63s CPU     12.80s WALL (     132 calls)
     vloc_psi     :     31.95s CPU     32.83s WALL (     132 calls)
     add_vuspsi   :     13.17s CPU     13.19s WALL (     132 calls)

     General routines
     calbec       :     13.52s CPU     13.69s WALL (     136 calls)
     fft          :      2.79s CPU      3.45s WALL (     419 calls)
     fftw         :     32.54s CPU     33.51s WALL (   26790 calls)
 
     Parallel routines
     fft_scatter  :     14.47s CPU     15.63s WALL (   27209 calls)
 
     PWSCF        :  3m 3.63s CPU     3m56.31s WALL

 
   This run was terminated on:  17:22:43   9Mar2020            

=------------------------------------------------------------------------------=
   JOB DONE.
=------------------------------------------------------------------------------=
