
                                 *****************
                                 * O   R   C   A *
                                 *****************

           --- An Ab Initio, DFT and Semiempirical electronic structure package ---

                  #######################################################
                  #                        -***-                        #
                  #          Department of theory and spectroscopy      #
                  #               Directorship: Frank Neese             #
                  #        Max Planck Institute fuer Kohlenforschung    #
                  #                Kaiser Wilhelm Platz 1               #
                  #                 D-45470 Muelheim/Ruhr               #
                  #                      Germany                        #
                  #                                                     #
                  #                  All rights reserved                #
                  #                        -***-                        #
                  #######################################################


                         Program Version 4.2.1 -  RELEASE  -


 With contributions from (in alphabetic order):
   Daniel Aravena         : Magnetic Suceptibility
   Michael Atanasov       : Ab Initio Ligand Field Theory (pilot matlab implementation)
   Alexander A. Auer      : GIAO ZORA, VPT2
   Ute Becker             : Parallelization
   Giovanni Bistoni       : ED, misc. LED, open-shell LED, HFLD
   Martin Brehm           : Molecular dynamics
   Dmytro Bykov           : SCF Hessian
   Vijay G. Chilkuri      : MRCI spin determinant printing, contributions to CSF-ICE
   Dipayan Datta          : RHF DLPNO-CCSD density
   Achintya Kumar Dutta   : EOM-CC, STEOM-CC
   Dmitry Ganyushin       : Spin-Orbit,Spin-Spin,Magnetic field MRCI
   Miquel Garcia          : C-PCM Hessian, Gaussian charge scheme
   Yang Guo               : DLPNO-NEVPT2, CIM, IAO-localization
   Andreas Hansen         : Spin unrestricted coupled pair/coupled cluster methods
   Benjamin Helmich-Paris : CASSCF linear response (MC-RPA)
   Lee Huntington         : MR-EOM, pCC
   Robert Izsak           : Overlap fitted RIJCOSX, COSX-SCS-MP3, EOM
   Christian Kollmar      : KDIIS, OOCD, Brueckner-CCSD(T), CCSD density
   Simone Kossmann        : Meta GGA functionals, TD-DFT gradient, OOMP2, MP2 Hessian
   Martin Krupicka        : AUTO-CI
   Lucas Lang             : DCDCAS
   Dagmar Lenk            : GEPOL surface, SMD
   Dimitrios Liakos       : Extrapolation schemes; Compound Job, initial MDCI parallelization
   Dimitrios Manganas     : Further ROCIS development; embedding schemes
   Dimitrios Pantazis     : SARC Basis sets
   Taras Petrenko         : DFT Hessian,TD-DFT gradient, ASA, ECA, R-Raman, ABS, FL, XAS/XES, NRVS
   Peter Pinski           : DLPNO-MP2, DLPNO-MP2 Gradient
   Christoph Reimann      : Effective Core Potentials
   Marius Retegan         : Local ZFS, SOC
   Christoph Riplinger    : Optimizer, TS searches, QM/MM, DLPNO-CCSD(T), (RO)-DLPNO pert. Triples
   Tobias Risthaus        : Range-separated hybrids, TD-DFT gradient, RPA, STAB
   Michael Roemelt        : Original ROCIS implementation
   Masaaki Saitow         : Open-shell DLPNO-CCSD energy and density
   Barbara Sandhoefer     : DKH picture change effects
   Avijit Sen             : IP-ROCIS
   Kantharuban Sivalingam : CASSCF convergence, NEVPT2, FIC-MRCI
   Bernardo de Souza      : ESD, SOC TD-DFT
   Georgi Stoychev        : AutoAux, RI-MP2 NMR
   Willem Van den Heuvel  : Paramagnetic NMR
   Boris Wezisla          : Elementary symmetry handling
   Frank Wennmohs         : Technical directorship


 We gratefully acknowledge several colleagues who have allowed us to
 interface, adapt or use parts of their codes:
   Stefan Grimme, W. Hujo, H. Kruse,             : VdW corrections, initial TS optimization,
                  C. Bannwarth                     DFT functionals, gCP, sTDA/sTD-DF
   Ed Valeev, F. Pavosevic, A. Kumar             : LibInt (2-el integral package), F12 methods
   Garnet Chan, S. Sharma, J. Yang, R. Olivares  : DMRG
   Ulf Ekstrom                                   : XCFun DFT Library
   Mihaly Kallay                                 : mrcc  (arbitrary order and MRCC methods)
   Andreas Klamt, Michael Diedenhofen            : otool_cosmo (COSMO solvation model)
   Jiri Pittner, Ondrej Demel                    : Mk-CCSD
   Frank Weinhold                                : gennbo (NPA and NBO analysis)
   Christopher J. Cramer and Donald G. Truhlar   : smd solvation model
   Lars Goerigk                                  : TD-DFT with DH, B97 family of functionals
   V. Asgeirsson, H. Jonsson                     : NEB implementation
   FAccTs GmbH                                   : IRC, NEB, NEB-TS, Multilevel, MM, QM/MM, CI optimization
   S Lehtola, MJT Oliveira, MAL Marques          : LibXC Library


 Your calculation uses the libint2 library for the computation of 2-el integrals
 For citations please refer to: http://libint.valeyev.net

 Your ORCA version has been built with support for libXC version: 4.2.3
 For citations please refer to: https://tddft.org/programs/libxc/

 This ORCA versions uses:
   CBLAS   interface :  Fast vector & matrix operations
   LAPACKE interface :  Fast linear algebra routines
   SCALAPACK package :  Parallel linear algebra routines




***************************************
The coordinates will be read from file: nv.xyz
***************************************


----- Orbital basis set information -----
Your calculation utilizes the basis: EPR-II
   V. Barone, in Recent Advances in Density Functional Methods, Part 1 (ed. D. P. Chong), World Scientific, Singapore, 1995, p. 287.

----- AuxJ basis set information -----
Your calculation utilizes the AutoAux generation procedure.
  G. L. Stoychev, A. A. Auer, F. Neese, J. Chem. Theory Comput. 13, 554 (2017)

----- AuxC basis set information -----
Your calculation utilizes the AutoAux generation procedure.
  G. L. Stoychev, A. A. Auer, F. Neese, J. Chem. Theory Comput. 13, 554 (2017)

----- AuxJK basis set information -----
Your calculation utilizes the AutoAux generation procedure.
  G. L. Stoychev, A. A. Auer, F. Neese, J. Chem. Theory Comput. 13, 554 (2017)

================================================================================
                                        WARNINGS
                       Please study these warnings very carefully!
================================================================================


WARNING: your system is open-shell and RHF/RKS was chosen
  ===> : WILL SWITCH to UHF/UKS


INFO   : the flag for use of LIBINT has been found!

================================================================================
                                       INPUT FILE
================================================================================
NAME = zfs.in
|  1> # Use EPR-II is a special basis set for epr, autoaux creates a large auxiliary basis
|  2> !PBE EPR-II AUTOAUX RIJCOSX
|  3> 
|  4> # use original (unoptimized) cluster xyz
|  5> *xyzfile -1 3 nv.xyz
|  6> 
|  7> # Parallelization
|  8> %PAL NPROCS 72 END
|  9> 
| 10> # ZFS calculation
| 11> %EPRNMR DTENSOR SSANDSO
| 12>     DSS     UNO
| 13>     DSOC    CP
| 14> END
| 15> 
| 16>                          ****END OF INPUT****
================================================================================

                       ****************************
                       * Single Point Calculation *
                       ****************************

---------------------------------
CARTESIAN COORDINATES (ANGSTROEM)
---------------------------------
  C     -0.769779    1.333355   -2.249811
  C      0.727763    1.260646   -4.258023
  C     -2.903450    0.000107   -2.199697
  C      1.451630   -2.514420   -2.199804
  C      1.451734    2.514450   -2.199700
  C     -2.162662   -1.256925   -0.144983
  C      2.169913    1.244365   -0.144986
  C     -0.007308   -2.501379   -0.145035
  C     -0.007205    2.501385   -0.144933
  C     -2.162610    1.257022   -0.144931
  C      2.169861   -1.244451   -0.145037
  C      0.710971    1.231360    0.395617
  C      0.710920   -1.231407    0.395566
  C     -1.421875    0.000022    0.395618
  C     -0.729672   -1.263605   -3.737621
  C     -0.729620    1.263791   -3.737569
  C      1.459145    0.000047   -3.737623
  C     -2.162319   -1.255868   -1.693673
  C      2.168823    1.244596   -1.693676
  C     -0.006622   -2.500520   -1.693726
  C     -0.006519    2.500590   -1.693623
  C     -2.162267    1.256029   -1.693621
  C      2.168771   -1.244617   -1.693727
  C     -0.769834   -1.333229   -2.249865
  C      1.539524    0.000014   -2.249867
  C     -1.455641    0.000119   -4.258021
  C      0.727711   -1.260500   -4.258075
  N      0.000000    0.000000    0.000000
  H      1.233332    2.136259   -3.907906
  H      0.724164    1.254459   -5.328003
  H     -2.921019    0.000130   -3.269544
  H     -3.908700    0.000121   -1.833101
  H      1.953032   -3.382914   -1.826663
  H      1.463900   -2.535675   -3.269519
  H      1.460498    2.529675   -3.269548
  H      1.954384    3.385007   -1.833106
  H     -1.667422   -2.137460    0.207581
  H     -3.174366   -1.241404    0.203028
  H      2.669342    2.122425    0.207839
  H      2.677944    0.369225    0.202756
  H      0.503413   -3.372934    0.207753
  H     -1.019204   -2.503783    0.202744
  H     -1.017378    2.512755    0.207668
  H      0.512102    3.369779    0.203076
  H     -3.172747    1.250496    0.207895
  H     -1.658732    2.134545    0.202848
  H      2.684808   -0.375308    0.207562
  H      2.662273   -2.128387    0.202936
  H      0.717231    1.242157    1.465539
  H      0.717180   -1.242248    1.465488
  H     -1.434353    0.000000    1.465541
  H     -1.232155   -2.133873   -4.105093
  H     -1.232066    2.134095   -4.105005
  H      2.464060    0.000033   -4.105096
  H     -2.674983   -2.128992   -2.039696
  H      3.181303    1.251971   -2.039701
  H     -0.506488   -3.381033   -2.039749
  H     -0.506348    3.381139   -2.039611
  H     -2.674895    2.129189   -2.039609
  H      3.181251   -1.252021   -2.039752
  H     -1.448714    0.000141   -5.328007
  H     -2.466663    0.000133   -3.907684
  H      1.233243   -2.136149   -3.907994
  H      0.724112   -1.254269   -5.328055

----------------------------
CARTESIAN COORDINATES (A.U.)
----------------------------
  NO LB      ZA    FRAG     MASS         X           Y           Z
   0 C     6.0000    0    12.011   -1.454671    2.519675   -4.251526
   1 C     6.0000    0    12.011    1.375273    2.382275   -8.046497
   2 C     6.0000    0    12.011   -5.486726    0.000202   -4.156825
   3 C     6.0000    0    12.011    2.743183   -4.751566   -4.157026
   4 C     6.0000    0    12.011    2.743380    4.751622   -4.156831
   5 C     6.0000    0    12.011   -4.086839   -2.375244   -0.273977
   6 C     6.0000    0    12.011    4.100541    2.351510   -0.273984
   7 C     6.0000    0    12.011   -0.013811   -4.726921   -0.274077
   8 C     6.0000    0    12.011   -0.013615    4.726933   -0.273883
   9 C     6.0000    0    12.011   -4.086741    2.375428   -0.273880
  10 C     6.0000    0    12.011    4.100444   -2.351672   -0.274081
  11 C     6.0000    0    12.011    1.343540    2.326934    0.747607
  12 C     6.0000    0    12.011    1.343444   -2.327021    0.747512
  13 C     6.0000    0    12.011   -2.686954    0.000041    0.747611
  14 C     6.0000    0    12.011   -1.378880   -2.387868   -7.063080
  15 C     6.0000    0    12.011   -1.378781    2.388219   -7.062982
  16 C     6.0000    0    12.011    2.757385    0.000088   -7.063084
  17 C     6.0000    0    12.011   -4.086191   -2.373246   -3.200578
  18 C     6.0000    0    12.011    4.098481    2.351945   -3.200585
  19 C     6.0000    0    12.011   -0.012514   -4.725297   -3.200678
  20 C     6.0000    0    12.011   -0.012319    4.725430   -3.200484
  21 C     6.0000    0    12.011   -4.086093    2.373551   -3.200481
  22 C     6.0000    0    12.011    4.098384   -2.351986   -3.200681
  23 C     6.0000    0    12.011   -1.454775   -2.519437   -4.251629
  24 C     6.0000    0    12.011    2.909279    0.000026   -4.251633
  25 C     6.0000    0    12.011   -2.750762    0.000225   -8.046494
  26 C     6.0000    0    12.011    1.375174   -2.382000   -8.046595
  27 N     7.0000    0    14.007    0.000000    0.000000    0.000000
  28 H     1.0000    0     1.008    2.330659    4.036944   -7.384872
  29 H     1.0000    0     1.008    1.368472    2.370585  -10.068467
  30 H     1.0000    0     1.008   -5.519926    0.000245   -6.178543
  31 H     1.0000    0     1.008   -7.386372    0.000228   -3.464060
  32 H     1.0000    0     1.008    3.690695   -6.392781   -3.451893
  33 H     1.0000    0     1.008    2.766369   -4.791732   -6.178495
  34 H     1.0000    0     1.008    2.759941    4.780393   -6.178550
  35 H     1.0000    0     1.008    3.693251    6.396737   -3.464069
  36 H     1.0000    0     1.008   -3.150970   -4.039214    0.392271
  37 H     1.0000    0     1.008   -5.998683   -2.345913    0.383668
  38 H     1.0000    0     1.008    5.044325    4.010803    0.392758
  39 H     1.0000    0     1.008    5.060581    0.697735    0.383154
  40 H     1.0000    0     1.008    0.951313   -6.373922    0.392597
  41 H     1.0000    0     1.008   -1.926017   -4.731464    0.383131
  42 H     1.0000    0     1.008   -1.922565    4.748420    0.392436
  43 H     1.0000    0     1.008    0.967732    6.367959    0.383759
  44 H     1.0000    0     1.008   -5.995623    2.363095    0.392864
  45 H     1.0000    0     1.008   -3.134548    4.033705    0.383326
  46 H     1.0000    0     1.008    5.073551   -0.709230    0.392235
  47 H     1.0000    0     1.008    5.030966   -4.022069    0.383494
  48 H     1.0000    0     1.008    1.355370    2.347336    2.769468
  49 H     1.0000    0     1.008    1.355273   -2.347508    2.769372
  50 H     1.0000    0     1.008   -2.710535    0.000000    2.769471
  51 H     1.0000    0     1.008   -2.328435   -4.032435   -7.757501
  52 H     1.0000    0     1.008   -2.328268    4.032855   -7.757336
  53 H     1.0000    0     1.008    4.656398    0.000062   -7.757507
  54 H     1.0000    0     1.008   -5.054986   -4.023211   -3.854467
  55 H     1.0000    0     1.008    6.011792    2.365881   -3.854476
  56 H     1.0000    0     1.008   -0.957123   -6.389227   -3.854568
  57 H     1.0000    0     1.008   -0.956859    6.389427   -3.854305
  58 H     1.0000    0     1.008   -5.054819    4.023585   -3.854302
  59 H     1.0000    0     1.008    6.011694   -2.365976   -3.854573
  60 H     1.0000    0     1.008   -2.737673    0.000267  -10.068475
  61 H     1.0000    0     1.008   -4.661318    0.000252   -7.384452
  62 H     1.0000    0     1.008    2.330492   -4.036737   -7.385038
  63 H     1.0000    0     1.008    1.368374   -2.370226  -10.068564

--------------------------------
INTERNAL COORDINATES (ANGSTROEM)
--------------------------------
 C      0   0   0     0.000000000000     0.00000000     0.00000000
 C      1   0   0     2.506159188609     0.00000000     0.00000000
 C      1   2   0     2.516468737388   120.47980033     0.00000000
 C      2   1   3     4.360203421051    75.28951498   283.77948098
 C      1   2   3     2.516468891556    60.13666439   174.71907255
 C      3   1   2     2.520068779782    91.79194712   121.28833100
 C      5   1   2     2.520068762728    91.79201993   236.05607764
 C      6   3   1     2.488818367914   120.26272268   304.19020215
 C      7   5   1     2.513948947659    60.08027954   306.41229828
 C      9   7   5     2.488817352385   120.00002880   109.82545099
 C      7   5   1     2.488816777056   120.26270159    55.80983233
 C      7   5   1     1.555934702297    91.16206224   325.68709312
 C      8   6   3     1.555934051912    89.52038816    91.06561729
 C      6   3   1     1.555934061702    91.16212212    34.31292442
 C      3   1   2     2.947455098670    65.88562639    32.41919377
 C      1   2   3     1.489925410430    35.15414080   323.08151360
 C      2   1   3     1.547529030614    92.09616881   273.73521377
 C      3   1   2     1.543634497547    91.74891424    85.78589529
 C      5   1   2     1.543634475125    91.74900365   271.55851522
 C      4   2   1     1.543634426347    89.43441786    30.89183770
 C      1   2   3     1.501448810442    90.89532351   191.81515948
 C      1   2   3     1.501449344844   148.15946932   329.09681938
 C      4   2   1     1.543633746509    61.29331667   278.87882689
 C     15   3   1     1.489925437903    58.60967736    79.25168917
 C     17   2   1     1.489925476671   111.18022711   326.95804088
 C     16   1   2     1.547528289940   111.18021292   121.75553488
 C     17   2   1     1.547528292439   109.09004221    89.92306830
 N     12   7   5     1.475886138973   111.44049748    93.52608412
 H      2   1   3     1.069990716778    89.79352601   164.26253075
 H      2   1   3     1.070004294790   143.07770563    40.86734302
 H      3   1   2     1.069991509777    89.65616668   336.17389651
 H      3   1   2     1.070008907766   143.45442868   213.40182392
 H      4   2   1     1.070008630066   160.93593850   213.27452144
 H      4   2   1     1.069996784561    63.07524131   143.53512798
 H     29   2   1     0.783506148048   144.53757491    32.14134805
 H      5   1   2     1.070008457175   143.45441156   143.94258785
 H      6   3   1     1.070002931709   144.60622174   267.56155987
 H      6   3   1     1.069998801653    88.85452190   143.28877488
 H      7   5   1     1.070001690320    89.32902229   216.43024002
 H      7   5   1     1.069995564221   144.34073003    91.60649891
 H      8   6   3     1.070002207273   145.14813577   215.49452431
 H     37   6   3     0.744581473005   143.67474242    62.06104374
 H      9   7   5     1.070002897580   145.37732652   145.27378864
 H      9   7   5     1.069998337088    89.16959388   270.84373778
 H     10   9   7     1.070002153730   145.14812966   144.76011292
 H     43   9   7     0.744581167056   143.67473628   300.54055367
 H     40   7   5     0.744581002836   145.51897272   298.58473537
 H     11   7   5     1.069998827204   145.69948102   144.51454586
 H     12   7   5     1.069995472815   109.98972405   211.05044890
 H     13   8   6     1.069995477084   109.98975808    90.79100386
 H     14   6   3     1.069995466058   109.98975814   148.94952880
 H     15   3   1     1.069995020726   100.46116415   182.87308407
 H     16   1   2     1.069995530304   106.99377719   240.87773466
 H     17   2   1     1.069995470583   109.17096221   209.14698707
 H     18   3   1     1.070001082848   109.14081205   209.46733766
 H     19   5   1     1.070001544574   109.14088146   150.53266270
 H     20   4   2     1.070001076565   109.14085337   120.92648834
 H     21   1   2     1.070001583963   106.41034515    92.35939567
 H     22   1   2     1.070001596084   106.41041639   291.94871447
 H     23   4   2     1.070001549046   109.14085329   258.30749264
 H     26  16   1     1.070008557446   109.46621822   177.47400826
 H     31   3   1     0.783365299580   143.60830342    31.99437326
 H     34   4   2     0.787701494162   142.83583391   341.07939133
 H     27  17   2     1.070004297031   109.46009776    59.54970985

---------------------------
INTERNAL COORDINATES (A.U.)
---------------------------
 C      0   0   0     0.000000000000     0.00000000     0.00000000
 C      1   0   0     4.735954514481     0.00000000     0.00000000
 C      1   2   0     4.755436738237   120.47980033     0.00000000
 C      2   1   3     8.239590353972    75.28951498   283.77948098
 C      1   2   3     4.755437029573    60.13666439   174.71907255
 C      3   1   2     4.762239832433    91.79194712   121.28833100
 C      5   1   2     4.762239800206    91.79201993   236.05607764
 C      6   3   1     4.703185112430   120.26272268   304.19020215
 C      7   5   1     4.750675025735    60.08027954   306.41229828
 C      9   7   5     4.703183193359   120.00002880   109.82545099
 C      7   5   1     4.703182106145   120.26270159    55.80983233
 C      7   5   1     2.940290469606    91.16206224   325.68709312
 C      8   6   3     2.940289240555    89.52038816    91.06561729
 C      6   3   1     2.940289259057    91.16212212    34.31292442
 C      3   1   2     5.569882928517    65.88562639    32.41919377
 C      1   2   3     2.815550985683    35.15414080   323.08151360
 C      2   1   3     2.924406052153    92.09616881   273.73521377
 C      3   1   2     2.917046451237    91.74891424    85.78589529
 C      5   1   2     2.917046408865    91.74900365   271.55851522
 C      4   2   1     2.917046316689    89.43441786    30.89183770
 C      1   2   3     2.837327055838    90.89532351   191.81515948
 C      1   2   3     2.837328065710   148.15946932   329.09681938
 C      4   2   1     2.917045031980    61.29331667   278.87882689
 C     15   3   1     2.815551037600    58.60967736    79.25168917
 C     17   2   1     2.815551110861   111.18022711   326.95804088
 C     16   1   2     2.924404652482   111.18021292   121.75553488
 C     17   2   1     2.924404657205   109.09004221    89.92306830
 N     12   7   5     2.789020607510   111.44049748    93.52608412
 H      2   1   3     2.021989420549    89.79352601   164.26253075
 H      2   1   3     2.022015079272   143.07770563    40.86734302
 H      3   1   2     2.021990919100    89.65616668   336.17389651
 H      3   1   2     2.022023796533   143.45442868   213.40182392
 H      4   2   1     2.022023271757   160.93593850   213.27452144
 H      4   2   1     2.022000886997    63.07524131   143.53512798
 H     29   2   1     1.480612044054   144.53757491    32.14134805
 H      5   1   2     2.022022945040   143.45441156   143.94258785
 H      6   3   1     2.022012503422   144.60622174   267.56155987
 H      6   3   1     2.022004698748    88.85452190   143.28877488
 H      7   5   1     2.022010157538    89.32902229   216.43024002
 H      7   5   1     2.021998580888   144.34073003    91.60649891
 H      8   6   3     2.022011134438   145.14813577   215.49452431
 H     37   6   3     1.407055068372   143.67474242    62.06104374
 H      9   7   5     2.022012438929   145.37732652   145.27378864
 H      9   7   5     2.022003820847    89.16959388   270.84373778
 H     10   9   7     2.022011033256   145.14812966   144.76011292
 H     43   9   7     1.407054490212   143.67473628   300.54055367
 H     40   7   5     1.407054179880   145.51897272   298.58473537
 H     11   7   5     2.022004747032   145.69948102   144.51454586
 H     12   7   5     2.021998408155   109.98972405   211.05044890
 H     13   8   6     2.021998416222   109.98975808    90.79100386
 H     14   6   3     2.021998395388   109.98975814   148.94952880
 H     15   3   1     2.021997553831   100.46116415   182.87308407
 H     16   1   2     2.021998516795   106.99377719   240.87773466
 H     17   2   1     2.021998403938   109.17096221   209.14698707
 H     18   3   1     2.022009009582   109.14081205   209.46733766
 H     19   5   1     2.022009882117   109.14088146   150.53266270
 H     20   4   2     2.022008997708   109.14085337   120.92648834
 H     21   1   2     2.022009956551   106.41034515    92.35939567
 H     22   1   2     2.022009979457   106.41041639   291.94871447
 H     23   4   2     2.022009890569   109.14085329   258.30749264
 H     26  16   1     2.022023134526   109.46621822   177.47400826
 H     31   3   1     1.480345879024   143.60830342    31.99437326
 H     34   4   2     1.488540099246   142.83583391   341.07939133
 H     27  17   2     2.022015083508   109.46009776    59.54970985

---------------------
BASIS SET INFORMATION
---------------------
There are 3 groups of distinct atoms

 Group   1 Type C   : 10s5p1d contracted to 6s2p1d pattern {511111/41/1}
 Group   2 Type N   : 10s5p1d contracted to 6s2p1d pattern {511111/41/1}
 Group   3 Type H   : 6s1p contracted to 4s1p pattern {3111/1}

Atom   0C    basis set group =>   1
Atom   1C    basis set group =>   1
Atom   2C    basis set group =>   1
Atom   3C    basis set group =>   1
Atom   4C    basis set group =>   1
Atom   5C    basis set group =>   1
Atom   6C    basis set group =>   1
Atom   7C    basis set group =>   1
Atom   8C    basis set group =>   1
Atom   9C    basis set group =>   1
Atom  10C    basis set group =>   1
Atom  11C    basis set group =>   1
Atom  12C    basis set group =>   1
Atom  13C    basis set group =>   1
Atom  14C    basis set group =>   1
Atom  15C    basis set group =>   1
Atom  16C    basis set group =>   1
Atom  17C    basis set group =>   1
Atom  18C    basis set group =>   1
Atom  19C    basis set group =>   1
Atom  20C    basis set group =>   1
Atom  21C    basis set group =>   1
Atom  22C    basis set group =>   1
Atom  23C    basis set group =>   1
Atom  24C    basis set group =>   1
Atom  25C    basis set group =>   1
Atom  26C    basis set group =>   1
Atom  27N    basis set group =>   2
Atom  28H    basis set group =>   3
Atom  29H    basis set group =>   3
Atom  30H    basis set group =>   3
Atom  31H    basis set group =>   3
Atom  32H    basis set group =>   3
Atom  33H    basis set group =>   3
Atom  34H    basis set group =>   3
Atom  35H    basis set group =>   3
Atom  36H    basis set group =>   3
Atom  37H    basis set group =>   3
Atom  38H    basis set group =>   3
Atom  39H    basis set group =>   3
Atom  40H    basis set group =>   3
Atom  41H    basis set group =>   3
Atom  42H    basis set group =>   3
Atom  43H    basis set group =>   3
Atom  44H    basis set group =>   3
Atom  45H    basis set group =>   3
Atom  46H    basis set group =>   3
Atom  47H    basis set group =>   3
Atom  48H    basis set group =>   3
Atom  49H    basis set group =>   3
Atom  50H    basis set group =>   3
Atom  51H    basis set group =>   3
Atom  52H    basis set group =>   3
Atom  53H    basis set group =>   3
Atom  54H    basis set group =>   3
Atom  55H    basis set group =>   3
Atom  56H    basis set group =>   3
Atom  57H    basis set group =>   3
Atom  58H    basis set group =>   3
Atom  59H    basis set group =>   3
Atom  60H    basis set group =>   3
Atom  61H    basis set group =>   3
Atom  62H    basis set group =>   3
Atom  63H    basis set group =>   3
---------------------------------
AUXILIARY/J BASIS SET INFORMATION
---------------------------------
There are 3 groups of distinct atoms

 Group   1 Type C   : 17s13p12d2f contracted to 17s13p12d2f pattern {11111111111111111/1111111111111/111111111111/11}
 Group   2 Type N   : 17s13p12d2f contracted to 17s13p12d2f pattern {11111111111111111/1111111111111/111111111111/11}
 Group   3 Type H   : 15s6p1d contracted to 15s6p1d pattern {111111111111111/111111/1}

Atom   0C    basis set group =>   1
Atom   1C    basis set group =>   1
Atom   2C    basis set group =>   1
Atom   3C    basis set group =>   1
Atom   4C    basis set group =>   1
Atom   5C    basis set group =>   1
Atom   6C    basis set group =>   1
Atom   7C    basis set group =>   1
Atom   8C    basis set group =>   1
Atom   9C    basis set group =>   1
Atom  10C    basis set group =>   1
Atom  11C    basis set group =>   1
Atom  12C    basis set group =>   1
Atom  13C    basis set group =>   1
Atom  14C    basis set group =>   1
Atom  15C    basis set group =>   1
Atom  16C    basis set group =>   1
Atom  17C    basis set group =>   1
Atom  18C    basis set group =>   1
Atom  19C    basis set group =>   1
Atom  20C    basis set group =>   1
Atom  21C    basis set group =>   1
Atom  22C    basis set group =>   1
Atom  23C    basis set group =>   1
Atom  24C    basis set group =>   1
Atom  25C    basis set group =>   1
Atom  26C    basis set group =>   1
Atom  27N    basis set group =>   2
Atom  28H    basis set group =>   3
Atom  29H    basis set group =>   3
Atom  30H    basis set group =>   3
Atom  31H    basis set group =>   3
Atom  32H    basis set group =>   3
Atom  33H    basis set group =>   3
Atom  34H    basis set group =>   3
Atom  35H    basis set group =>   3
Atom  36H    basis set group =>   3
Atom  37H    basis set group =>   3
Atom  38H    basis set group =>   3
Atom  39H    basis set group =>   3
Atom  40H    basis set group =>   3
Atom  41H    basis set group =>   3
Atom  42H    basis set group =>   3
Atom  43H    basis set group =>   3
Atom  44H    basis set group =>   3
Atom  45H    basis set group =>   3
Atom  46H    basis set group =>   3
Atom  47H    basis set group =>   3
Atom  48H    basis set group =>   3
Atom  49H    basis set group =>   3
Atom  50H    basis set group =>   3
Atom  51H    basis set group =>   3
Atom  52H    basis set group =>   3
Atom  53H    basis set group =>   3
Atom  54H    basis set group =>   3
Atom  55H    basis set group =>   3
Atom  56H    basis set group =>   3
Atom  57H    basis set group =>   3
Atom  58H    basis set group =>   3
Atom  59H    basis set group =>   3
Atom  60H    basis set group =>   3
Atom  61H    basis set group =>   3
Atom  62H    basis set group =>   3
Atom  63H    basis set group =>   3
---------------------------------
AUXILIARY/C BASIS SET INFORMATION
---------------------------------
There are 3 groups of distinct atoms

 Group   1 Type C   : 17s13p12d2f contracted to 17s13p12d2f pattern {11111111111111111/1111111111111/111111111111/11}
 Group   2 Type N   : 17s13p12d2f contracted to 17s13p12d2f pattern {11111111111111111/1111111111111/111111111111/11}
 Group   3 Type H   : 15s6p1d contracted to 15s6p1d pattern {111111111111111/111111/1}

Atom   0C    basis set group =>   1
Atom   1C    basis set group =>   1
Atom   2C    basis set group =>   1
Atom   3C    basis set group =>   1
Atom   4C    basis set group =>   1
Atom   5C    basis set group =>   1
Atom   6C    basis set group =>   1
Atom   7C    basis set group =>   1
Atom   8C    basis set group =>   1
Atom   9C    basis set group =>   1
Atom  10C    basis set group =>   1
Atom  11C    basis set group =>   1
Atom  12C    basis set group =>   1
Atom  13C    basis set group =>   1
Atom  14C    basis set group =>   1
Atom  15C    basis set group =>   1
Atom  16C    basis set group =>   1
Atom  17C    basis set group =>   1
Atom  18C    basis set group =>   1
Atom  19C    basis set group =>   1
Atom  20C    basis set group =>   1
Atom  21C    basis set group =>   1
Atom  22C    basis set group =>   1
Atom  23C    basis set group =>   1
Atom  24C    basis set group =>   1
Atom  25C    basis set group =>   1
Atom  26C    basis set group =>   1
Atom  27N    basis set group =>   2
Atom  28H    basis set group =>   3
Atom  29H    basis set group =>   3
Atom  30H    basis set group =>   3
Atom  31H    basis set group =>   3
Atom  32H    basis set group =>   3
Atom  33H    basis set group =>   3
Atom  34H    basis set group =>   3
Atom  35H    basis set group =>   3
Atom  36H    basis set group =>   3
Atom  37H    basis set group =>   3
Atom  38H    basis set group =>   3
Atom  39H    basis set group =>   3
Atom  40H    basis set group =>   3
Atom  41H    basis set group =>   3
Atom  42H    basis set group =>   3
Atom  43H    basis set group =>   3
Atom  44H    basis set group =>   3
Atom  45H    basis set group =>   3
Atom  46H    basis set group =>   3
Atom  47H    basis set group =>   3
Atom  48H    basis set group =>   3
Atom  49H    basis set group =>   3
Atom  50H    basis set group =>   3
Atom  51H    basis set group =>   3
Atom  52H    basis set group =>   3
Atom  53H    basis set group =>   3
Atom  54H    basis set group =>   3
Atom  55H    basis set group =>   3
Atom  56H    basis set group =>   3
Atom  57H    basis set group =>   3
Atom  58H    basis set group =>   3
Atom  59H    basis set group =>   3
Atom  60H    basis set group =>   3
Atom  61H    basis set group =>   3
Atom  62H    basis set group =>   3
Atom  63H    basis set group =>   3
----------------------------------
AUXILIARY/JK BASIS SET INFORMATION
----------------------------------
There are 3 groups of distinct atoms

 Group   1 Type C   : 17s13p12d2f contracted to 17s13p12d2f pattern {11111111111111111/1111111111111/111111111111/11}
 Group   2 Type N   : 17s13p12d2f contracted to 17s13p12d2f pattern {11111111111111111/1111111111111/111111111111/11}
 Group   3 Type H   : 15s6p1d contracted to 15s6p1d pattern {111111111111111/111111/1}

Atom   0C    basis set group =>   1
Atom   1C    basis set group =>   1
Atom   2C    basis set group =>   1
Atom   3C    basis set group =>   1
Atom   4C    basis set group =>   1
Atom   5C    basis set group =>   1
Atom   6C    basis set group =>   1
Atom   7C    basis set group =>   1
Atom   8C    basis set group =>   1
Atom   9C    basis set group =>   1
Atom  10C    basis set group =>   1
Atom  11C    basis set group =>   1
Atom  12C    basis set group =>   1
Atom  13C    basis set group =>   1
Atom  14C    basis set group =>   1
Atom  15C    basis set group =>   1
Atom  16C    basis set group =>   1
Atom  17C    basis set group =>   1
Atom  18C    basis set group =>   1
Atom  19C    basis set group =>   1
Atom  20C    basis set group =>   1
Atom  21C    basis set group =>   1
Atom  22C    basis set group =>   1
Atom  23C    basis set group =>   1
Atom  24C    basis set group =>   1
Atom  25C    basis set group =>   1
Atom  26C    basis set group =>   1
Atom  27N    basis set group =>   2
Atom  28H    basis set group =>   3
Atom  29H    basis set group =>   3
Atom  30H    basis set group =>   3
Atom  31H    basis set group =>   3
Atom  32H    basis set group =>   3
Atom  33H    basis set group =>   3
Atom  34H    basis set group =>   3
Atom  35H    basis set group =>   3
Atom  36H    basis set group =>   3
Atom  37H    basis set group =>   3
Atom  38H    basis set group =>   3
Atom  39H    basis set group =>   3
Atom  40H    basis set group =>   3
Atom  41H    basis set group =>   3
Atom  42H    basis set group =>   3
Atom  43H    basis set group =>   3
Atom  44H    basis set group =>   3
Atom  45H    basis set group =>   3
Atom  46H    basis set group =>   3
Atom  47H    basis set group =>   3
Atom  48H    basis set group =>   3
Atom  49H    basis set group =>   3
Atom  50H    basis set group =>   3
Atom  51H    basis set group =>   3
Atom  52H    basis set group =>   3
Atom  53H    basis set group =>   3
Atom  54H    basis set group =>   3
Atom  55H    basis set group =>   3
Atom  56H    basis set group =>   3
Atom  57H    basis set group =>   3
Atom  58H    basis set group =>   3
Atom  59H    basis set group =>   3
Atom  60H    basis set group =>   3
Atom  61H    basis set group =>   3
Atom  62H    basis set group =>   3
Atom  63H    basis set group =>   3


           ************************************************************
           *        Program running with 72 parallel MPI-processes    *
           *              working on a shared directory               *
           ************************************************************
------------------------------------------------------------------------------
                           ORCA GTO INTEGRAL CALCULATION
                           -- RI-GTO INTEGRALS CHOSEN --
------------------------------------------------------------------------------

                         BASIS SET STATISTICS AND STARTUP INFO

Gaussian basis set:
 # of primitive gaussian shells          ...  700
 # of primitive gaussian functions       ... 1164
 # of contracted shells                  ...  432
 # of contracted basis functions         ...  728
 Highest angular momentum                ...    2
 Maximum contraction depth               ...    5
Auxiliary gaussian basis set:
 # of primitive gaussian shells          ... 2024
 # of primitive gaussian functions       ... 5008
 # of contracted shells                  ... 2024
 # of contracted aux-basis functions     ... 5008
 Highest angular momentum                ...    3
 Maximum contraction depth               ...    1
Ratio of auxiliary to basis functions    ...  6.88
Integral package used                  ... LIBINT
 One Electron integrals                  ... done
 Ordering auxiliary basis shells         ... done
 Integral threshhold             Thresh  ...  1.000e-10
 Primitive cut-off               TCut    ...  1.000e-11
 Pre-screening matrix                    ... done
 Shell pair data                         ... 
 Ordering of the shell pairs             ... done (   0.016 sec) 66490 of 93528 pairs
 Determination of significant pairs      ... done (   0.000 sec)
 Creation of shell pair data             ... done (   0.010 sec)
 Storage of shell pair data              ... done (   0.038 sec)
 Shell pair data done in (   0.065 sec)
 Computing two index integrals           ... done
 Cholesky decomposition of the V-matrix  ... done


Timings:
 Total evaluation time                   ...   4.587 sec (  0.076 min)
 One electron matrix time                ...   0.724 sec (  0.012 min) = 15.8%
 Schwartz matrix evaluation time         ...   0.421 sec (  0.007 min) =  9.2%
 Two index repulsion integral time       ...   0.945 sec (  0.016 min) = 20.6%
 Cholesky decomposition of V             ...   2.400 sec (  0.040 min) = 52.3%
 Three index repulsion integral time     ...   0.001 sec (  0.000 min) =  0.0%



           ************************************************************
           *        Program running with 72 parallel MPI-processes    *
           *              working on a shared directory               *
           ************************************************************
-------------------------------------------------------------------------------
                                 ORCA SCF
-------------------------------------------------------------------------------

------------
SCF SETTINGS
------------
Hamiltonian:
 Density Functional     Method          .... DFT(GTOs)
 Exchange Functional    Exchange        .... PBE
   PBE kappa parameter   XKappa         ....  0.804000
   PBE mue parameter    XMuePBE         ....  0.219520
 Correlation Functional Correlation     .... PBE
   PBE beta parameter  CBetaPBE         ....  0.066725
 LDA part of GGA corr.  LDAOpt          .... PW91-LDA
 Gradients option       PostSCFGGA      .... off
   Density functional embedding theory  .... OFF
   NL short-range parameter             ....  6.400000
 RI-approximation to the Coulomb term is turned on
   Number of auxiliary basis functions  .... 5008
   RIJ-COSX (HFX calculated with COS-X)).... on


General Settings:
 Integral files         IntName         .... zfs
 Hartree-Fock type      HFTyp           .... UHF
 Total Charge           Charge          ....   -1
 Multiplicity           Mult            ....    3
 Number of Electrons    NEL             ....  206
 Basis Dimension        Dim             ....  728
 Nuclear Repulsion      ENuc            ....   3308.0184381375 Eh

Convergence Acceleration:
 DIIS                   CNVDIIS         .... on
   Start iteration      DIISMaxIt       ....    12
   Startup error        DIISStart       ....  0.200000
   # of expansion vecs  DIISMaxEq       ....     5
   Bias factor          DIISBfac        ....   1.050
   Max. coefficient     DIISMaxC        ....  10.000
 Newton-Raphson         CNVNR           .... off
 SOSCF                  CNVSOSCF        .... off
 Level Shifting         CNVShift        .... on
   Level shift para.    LevelShift      ....    0.2500
   Turn off err/grad.   ShiftErr        ....    0.0010
 Zerner damping         CNVZerner       .... off
 Static damping         CNVDamp         .... on
   Fraction old density DampFac         ....    0.7000
   Max. Damping (<1)    DampMax         ....    0.9800
   Min. Damping (>=0)   DampMin         ....    0.0000
   Turn off err/grad.   DampErr         ....    0.1000
 Fernandez-Rico         CNVRico         .... off

SCF Procedure:
 Maximum # iterations   MaxIter         ....   125
 SCF integral mode      SCFMode         .... Direct
   Integral package                     .... LIBINT
 Reset frequency        DirectResetFreq ....    20
 Integral Threshold     Thresh          ....  1.000e-10 Eh
 Primitive CutOff       TCut            ....  1.000e-11 Eh

Convergence Tolerance:
 Convergence Check Mode ConvCheckMode   .... Total+1el-Energy
 Convergence forced     ConvForced      .... 0
 Energy Change          TolE            ....  1.000e-06 Eh
 1-El. energy change                    ....  1.000e-03 Eh
 DIIS Error             TolErr          ....  1.000e-06


Diagonalization of the overlap matrix:
Smallest eigenvalue                        ... 1.744e-04
Time for diagonalization                   ...    0.158 sec
Threshold for overlap eigenvalues          ... 1.000e-08
Number of eigenvalues below threshold      ... 0
Time for construction of square roots      ...    0.283 sec
Total time needed                          ...    0.444 sec

-------------------
DFT GRID GENERATION
-------------------

General Integration Accuracy     IntAcc      ...  4.340
Radial Grid Type                 RadialGrid  ... Gauss-Chebyshev
Angular Grid (max. acc.)         AngularGrid ... Lebedev-110
Angular grid pruning method      GridPruning ... 3 (G Style)
Weight generation scheme         WeightScheme... Becke
Basis function cutoff            BFCut       ...    1.0000e-10
Integration weight cutoff        WCut        ...    1.0000e-14
Grids for H and He will be reduced by one unit

# of grid points (after initial pruning)     ...  74998 (   0.0 sec)
# of grid points (after weights+screening)   ...  62543 (   0.1 sec)
nearest neighbour list constructed           ...    0.0 sec
Grid point re-assignment to atoms done       ...    0.0 sec
Grid point division into batches done        ...    0.0 sec
Reduced shell lists constructed in    0.1 sec

Total number of grid points                  ...    62543
Total number of batches                      ...     1008
Average number of points per batch           ...       62
Average number of grid points per atom       ...      977
Average number of shells per batch           ...   224.53 (51.98%)
Average number of basis functions per batch  ...   450.67 (61.90%)
Average number of large shells per batch     ...   170.93 (76.13%)
Average number of large basis fcns per batch ...   340.27 (75.50%)
Maximum spatial batch extension              ...   2.31,  2.18,  2.18 au
Average spatial batch extension              ...   0.03,  0.02,  0.02 au

Time for grid setup =    0.442 sec

------------------------------
INITIAL GUESS: MODEL POTENTIAL
------------------------------
Loading Hartree-Fock densities                     ... done
Calculating cut-offs                               ... done
Setting up the integral package                    ... done
Initializing the effective Hamiltonian             ... done
Starting the Coulomb interaction                   ... done (   0.1 sec)
Reading the grid                                   ... done
Mapping shells                                     ... done
Starting the XC term evaluation                    ... done (   0.2 sec)
  promolecular density results
     # of electrons  =    204.968201701
     EX              =   -156.125770892
     EC              =     -7.166573870
     EX+EC           =   -163.292344763
Transforming the Hamiltonian                       ... done (   0.1 sec)
Diagonalizing the Hamiltonian                      ... done (   0.1 sec)
Back transforming the eigenvectors                 ... done (   0.1 sec)
Now organizing SCF variables                       ... done
                      ------------------
                      INITIAL GUESS DONE (   1.2 sec)
                      ------------------
--------------------
COSX GRID GENERATION
--------------------

General Integration Accuracy     IntAcc      ...  3.340
Radial Grid Type                 RadialGrid  ... Gauss-Chebyshev
Angular Grid (max. acc.)         AngularGrid ... Lebedev-50
Angular grid pruning method      GridPruning ... 3 (G Style)
Weight generation scheme         WeightScheme... Becke
Basis function cutoff            BFCut       ...    1.0000e-10
Integration weight cutoff        WCut        ...    1.0000e-14
Grids for H and He will be reduced by one unit

# of grid points (after initial pruning)     ...  27746 (   0.0 sec)
# of grid points (after weights+screening)   ...  23454 (   0.0 sec)
nearest neighbour list constructed           ...    0.0 sec
Grid point re-assignment to atoms done       ...    0.0 sec
Grid point division into batches done        ...    0.0 sec
Reduced shell lists constructed in    0.1 sec

Total number of grid points                  ...    23454
Total number of batches                      ...      392
Average number of points per batch           ...       59
Average number of grid points per atom       ...      366
Average number of shells per batch           ...   221.29 (51.22%)
Average number of basis functions per batch  ...   444.43 (61.05%)
Average number of large shells per batch     ...   165.86 (74.95%)
Average number of large basis fcns per batch ...   333.00 (74.93%)
Maximum spatial batch extension              ...   2.78,  3.21,  2.80 au
Average spatial batch extension              ...   0.03,  0.04,  0.04 au

Overlap Fitting                  UseSFitting ... on
Constructing numerical overlap ... done (      0.0 sec)
Inverting numerical overlap    ... done (      0.0 sec)
Obtaining analytic overlap     ... done (      0.0 sec)
Final contraction and storage  ... done (      0.1 sec)


General Integration Accuracy     IntAcc      ...  3.670
Radial Grid Type                 RadialGrid  ... Gauss-Chebyshev
Angular Grid (max. acc.)         AngularGrid ... Lebedev-50
Angular grid pruning method      GridPruning ... 3 (G Style)
Weight generation scheme         WeightScheme... Becke
Basis function cutoff            BFCut       ...    1.0000e-10
Integration weight cutoff        WCut        ...    1.0000e-14
Grids for H and He will be reduced by one unit

# of grid points (after initial pruning)     ...  35464 (   0.0 sec)
# of grid points (after weights+screening)   ...  29928 (   0.0 sec)
nearest neighbour list constructed           ...    0.0 sec
Grid point re-assignment to atoms done       ...    0.0 sec
Grid point division into batches done        ...    0.0 sec
Reduced shell lists constructed in    0.0 sec

Total number of grid points                  ...    29928
Total number of batches                      ...      501
Average number of points per batch           ...       59
Average number of grid points per atom       ...      468
Average number of shells per batch           ...   222.50 (51.50%)
Average number of basis functions per batch  ...   446.00 (61.26%)
Average number of large shells per batch     ...   166.62 (74.89%)
Average number of large basis fcns per batch ...   333.38 (74.75%)
Maximum spatial batch extension              ...   2.72,  3.12,  3.13 au
Average spatial batch extension              ...   0.03,  0.03,  0.03 au

Overlap Fitting                  UseSFitting ... on
Constructing numerical overlap ... done (      0.0 sec)
Inverting numerical overlap    ... done (      0.0 sec)
Obtaining analytic overlap     ... done (      0.0 sec)
Final contraction and storage  ... done (      0.1 sec)


General Integration Accuracy     IntAcc      ...  4.010
Radial Grid Type                 RadialGrid  ... Gauss-Chebyshev
Angular Grid (max. acc.)         AngularGrid ... Lebedev-110
Angular grid pruning method      GridPruning ... 3 (G Style)
Weight generation scheme         WeightScheme... Becke
Basis function cutoff            BFCut       ...    1.0000e-10
Integration weight cutoff        WCut        ...    1.0000e-14
Grids for H and He will be reduced by one unit

# of grid points (after initial pruning)     ...  65152 (   0.0 sec)
# of grid points (after weights+screening)   ...  54626 (   0.1 sec)
nearest neighbour list constructed           ...    0.0 sec
Grid point re-assignment to atoms done       ...    0.0 sec
Grid point division into batches done        ...    0.1 sec
Reduced shell lists constructed in    0.1 sec

Total number of grid points                  ...    54626
Total number of batches                      ...      881
Average number of points per batch           ...       62
Average number of grid points per atom       ...      854
Average number of shells per batch           ...   227.29 (52.61%)
Average number of basis functions per batch  ...   456.71 (62.74%)
Average number of large shells per batch     ...   169.29 (74.48%)
Average number of large basis fcns per batch ...   337.14 (73.82%)
Maximum spatial batch extension              ...   2.55,  2.41,  2.50 au
Average spatial batch extension              ...   0.03,  0.03,  0.03 au

Overlap Fitting                  UseSFitting ... on
Constructing numerical overlap ... done (      0.1 sec)
Inverting numerical overlap    ... done (      0.0 sec)
Obtaining analytic overlap     ... done (      0.0 sec)
Final contraction and storage  ... done (      0.1 sec)

Time for X-Grid setup             =    1.253 sec
--------------
SCF ITERATIONS
--------------
ITER       Energy         Delta-E        Max-DP      RMS-DP      [F,P]     Damp
               ***  Starting incremental Fock matrix formation  ***
  0  -1102.3546567576   0.000000000000 7.70775041  0.02042535  0.1511581 0.7000
  1  -1102.7799571163  -0.425300358710 4.78486641  0.01271990  0.0656768 0.7000
                               ***Turning on DIIS***
  2  -1102.8700261230  -0.090069006643 0.67926884  0.00356802  0.0352288 0.0000
  3  -1103.1234940879  -0.253467964936 4.43815681  0.01132330  0.0323438 0.0000
  4  -1103.1567336984  -0.033239610527 1.43428647  0.00365060  0.0198658 0.0000
  5  -1103.1660885438  -0.009354845335 0.63676045  0.00160491  0.0058056 0.0000
  6  -1103.1674309478  -0.001342404062 0.42615780  0.00108129  0.0014175 0.0000
  7  -1103.1676378684  -0.000206920574 0.25553059  0.00064022  0.0024141 0.0000
  8  -1103.1677430270  -0.000105158646 0.52682246  0.00131772  0.0005489 0.0000
  9  -1103.1678100460  -0.000067019010 0.09527461  0.00028951  0.0008122 0.0000
 10  -1103.1678164444  -0.000006398317 0.08468154  0.00022573  0.0005330 0.0000
 11  -1103.1678212369  -0.000004792520 0.02632629  0.00006714  0.0003692 0.0000
 12  -1103.1678233006  -0.000002063758 0.00892497  0.00001566  0.0000657 0.0000
 13  -1103.1678231449   0.000000155723 0.00435059  0.00001072  0.0000846 0.0000
                 **** Energy Check signals convergence ****

               *****************************************************
               *                     SUCCESS                       *
               *           SCF CONVERGED AFTER  14 CYCLES          *
               *****************************************************

Setting up the final grid:

General Integration Accuracy     IntAcc      ...  4.670
Radial Grid Type                 RadialGrid  ... Gauss-Chebyshev
Angular Grid (max. acc.)         AngularGrid ... Lebedev-302
Angular grid pruning method      GridPruning ... 3 (G Style)
Weight generation scheme         WeightScheme... Becke
Basis function cutoff            BFCut       ...    1.0000e-10
Integration weight cutoff        WCut        ...    1.0000e-14
Grids for H and He will be reduced by one unit

# of grid points (after initial pruning)     ... 296120 (   0.0 sec)
# of grid points (after weights+screening)   ... 239148 (   0.2 sec)
nearest neighbour list constructed           ...    0.0 sec
Grid point re-assignment to atoms done       ...    0.1 sec
Grid point division into batches done        ...    0.8 sec
Reduced shell lists constructed in    0.9 sec

Total number of grid points                  ...   239148
Total number of batches                      ...     3772
Average number of points per batch           ...       63
Average number of grid points per atom       ...     3737
Average number of shells per batch           ...   226.61 (52.46%)
Average number of basis functions per batch  ...   455.91 (62.62%)
Average number of large shells per batch     ...   168.48 (74.35%)
Average number of large basis fcns per batch ...   333.78 (73.21%)
Maximum spatial batch extension              ...   1.77,  1.70,  2.09 au
Average spatial batch extension              ...   0.02,  0.02,  0.02 au

Final grid set up in    1.3 sec
Final integration                            ... done (   0.9 sec)
Change in XC energy                          ...    -0.000212570
Integrated number of electrons               ...   206.000975408
Previous integrated no of electrons          ...   205.997860231

----------------
TOTAL SCF ENERGY
----------------

Total Energy       :        -1103.16803589 Eh          -30018.72838 eV

Components:
Nuclear Repulsion  :         3308.01843814 Eh           90015.75801 eV
Electronic Energy  :        -4411.18647402 Eh         -120034.48639 eV
One Electron Energy:        -8103.22241272 Eh         -220499.89185 eV
Two Electron Energy:         3692.03593869 Eh          100465.40545 eV

Virial components:
Potential Energy   :        -2203.46129618 Eh          -59959.23014 eV
Kinetic Energy     :         1100.29326029 Eh           29940.50176 eV
Virial Ratio       :            2.00261274


DFT components:
N(Alpha)           :      104.000581553063 electrons
N(Beta)            :      102.000393854453 electrons
N(Total)           :      206.000975407516 electrons
E(X)               :     -159.757663455394 Eh       
E(C)               :       -7.076856277698 Eh       
E(XC)              :     -166.834519733092 Eh       
DFET-embed. en.    :        0.000000000000 Eh       

---------------
SCF CONVERGENCE
---------------

  Last Energy change         ...   -1.7078e-07  Tolerance :   1.0000e-06
  Last MAX-Density change    ...    6.6631e-04  Tolerance :   1.0000e-05
  Last RMS-Density change    ...    1.8904e-06  Tolerance :   1.0000e-06
  Last DIIS Error            ...    2.9361e-05  Tolerance :   1.0000e-06

             **** THE GBW FILE WAS UPDATED (zfs.gbw) ****
             **** DENSITY FILE WAS UPDATED (zfs.scfp) ****
             **** ENERGY FILE WAS UPDATED (zfs.en.tmp) ****
----------------------
UHF SPIN CONTAMINATION
----------------------

Warning: in a DFT calculation there is little theoretical justification to 
         calculate <S**2> as in Hartree-Fock theory. We will do it anyways
         but you should keep in mind that the values have only limited relevance

Expectation value of <S**2>     :     2.011144
Ideal value S*(S+1) for S=1.0   :     2.000000
Deviation                       :     0.011144

             **** THE GBW FILE WAS UPDATED (zfs.gbw) ****
             **** DENSITY FILE WAS UPDATED (zfs.scfp) ****
----------------
ORBITAL ENERGIES
----------------
                 SPIN UP ORBITALS
  NO   OCC          E(Eh)            E(eV) 
   0   1.0000     -13.855770      -377.0347 
   1   1.0000      -9.801452      -266.7111 
   2   1.0000      -9.801145      -266.7027 
   3   1.0000      -9.801104      -266.7016 
   4   1.0000      -9.762921      -265.6626 
   5   1.0000      -9.762729      -265.6574 
   6   1.0000      -9.762662      -265.6555 
   7   1.0000      -9.762624      -265.6545 
   8   1.0000      -9.762566      -265.6529 
   9   1.0000      -9.762537      -265.6521 
  10   1.0000      -9.755574      -265.4627 
  11   1.0000      -9.755533      -265.4615 
  12   1.0000      -9.755480      -265.4601 
  13   1.0000      -9.749187      -265.2889 
  14   1.0000      -9.749095      -265.2864 
  15   1.0000      -9.748729      -265.2764 
  16   1.0000      -9.748499      -265.2702 
  17   1.0000      -9.748496      -265.2701 
  18   1.0000      -9.747989      -265.2563 
  19   1.0000      -9.739989      -265.0386 
  20   1.0000      -9.739633      -265.0289 
  21   1.0000      -9.739052      -265.0131 
  22   1.0000      -9.735584      -264.9187 
  23   1.0000      -9.735466      -264.9155 
  24   1.0000      -9.735371      -264.9129 
  25   1.0000      -9.734665      -264.8937 
  26   1.0000      -9.734187      -264.8807 
  27   1.0000      -9.734177      -264.8804 
  28   1.0000      -0.729721       -19.8567 
  29   1.0000      -0.667404       -18.1610 
  30   1.0000      -0.652352       -17.7514 
  31   1.0000      -0.652242       -17.7484 
  32   1.0000      -0.609356       -16.5814 
  33   1.0000      -0.598189       -16.2775 
  34   1.0000      -0.598043       -16.2736 
  35   1.0000      -0.582443       -15.8491 
  36   1.0000      -0.582305       -15.8453 
  37   1.0000      -0.545780       -14.8514 
  38   1.0000      -0.521563       -14.1925 
  39   1.0000      -0.521521       -14.1913 
  40   1.0000      -0.518951       -14.1214 
  41   1.0000      -0.515907       -14.0386 
  42   1.0000      -0.515747       -14.0342 
  43   1.0000      -0.501957       -13.6589 
  44   1.0000      -0.444682       -12.1004 
  45   1.0000      -0.444610       -12.0985 
  46   1.0000      -0.423897       -11.5348 
  47   1.0000      -0.405315       -11.0292 
  48   1.0000      -0.405267       -11.0279 
  49   1.0000      -0.400247       -10.8913 
  50   1.0000      -0.397477       -10.8159 
  51   1.0000      -0.384069       -10.4511 
  52   1.0000      -0.383925       -10.4471 
  53   1.0000      -0.358442        -9.7537 
  54   1.0000      -0.357965        -9.7407 
  55   1.0000      -0.357836        -9.7372 
  56   1.0000      -0.346438        -9.4271 
  57   1.0000      -0.312929        -8.5152 
  58   1.0000      -0.308975        -8.4076 
  59   1.0000      -0.308900        -8.4056 
  60   1.0000      -0.301305        -8.1989 
  61   1.0000      -0.301240        -8.1972 
  62   1.0000      -0.282114        -7.6767 
  63   1.0000      -0.279269        -7.5993 
  64   1.0000      -0.279197        -7.5973 
  65   1.0000      -0.275606        -7.4996 
  66   1.0000      -0.275585        -7.4990 
  67   1.0000      -0.242662        -6.6032 
  68   1.0000      -0.242550        -6.6001 
  69   1.0000      -0.238281        -6.4839 
  70   1.0000      -0.231004        -6.2860 
  71   1.0000      -0.228432        -6.2159 
  72   1.0000      -0.226277        -6.1573 
  73   1.0000      -0.226212        -6.1555 
  74   1.0000      -0.212438        -5.7807 
  75   1.0000      -0.212373        -5.7790 
  76   1.0000      -0.210094        -5.7169 
  77   1.0000      -0.197016        -5.3611 
  78   1.0000      -0.190606        -5.1866 
  79   1.0000      -0.190592        -5.1863 
  80   1.0000      -0.179314        -4.8794 
  81   1.0000      -0.179309        -4.8792 
  82   1.0000      -0.171369        -4.6632 
  83   1.0000      -0.166753        -4.5376 
  84   1.0000      -0.166722        -4.5367 
  85   1.0000      -0.161162        -4.3854 
  86   1.0000      -0.158653        -4.3172 
  87   1.0000      -0.156233        -4.2513 
  88   1.0000      -0.156185        -4.2500 
  89   1.0000      -0.146929        -3.9981 
  90   1.0000      -0.146870        -3.9965 
  91   1.0000      -0.135095        -3.6761 
  92   1.0000      -0.119904        -3.2628 
  93   1.0000      -0.119877        -3.2620 
  94   1.0000      -0.095617        -2.6019 
  95   1.0000      -0.095573        -2.6007 
  96   1.0000      -0.092617        -2.5202 
  97   1.0000      -0.077023        -2.0959 
  98   1.0000      -0.059124        -1.6089 
  99   1.0000      -0.056862        -1.5473 
 100   1.0000      -0.056509        -1.5377 
 101   1.0000       0.002086         0.0568 
 102   1.0000       0.047477         1.2919 
 103   1.0000       0.047491         1.2923 
 104   0.0000       0.096970         2.6387 
 105   0.0000       0.113776         3.0960 
 106   0.0000       0.116254         3.1634 
 107   0.0000       0.117319         3.1924 
 108   0.0000       0.124694         3.3931 
 109   0.0000       0.125203         3.4069 
 110   0.0000       0.126520         3.4428 
 111   0.0000       0.130537         3.5521 
 112   0.0000       0.131530         3.5791 
 113   0.0000       0.140650         3.8273 
 114   0.0000       0.143273         3.8987 
 115   0.0000       0.143566         3.9066 
 116   0.0000       0.150406         4.0928 
 117   0.0000       0.151823         4.1313 
 118   0.0000       0.152667         4.1543 
 119   0.0000       0.155484         4.2309 
 120   0.0000       0.179248         4.8776 
 121   0.0000       0.180115         4.9012 
 122   0.0000       0.183921         5.0048 
 123   0.0000       0.184733         5.0268 
 124   0.0000       0.185083         5.0364 
 125   0.0000       0.185745         5.0544 
 126   0.0000       0.193479         5.2648 
 127   0.0000       0.194029         5.2798 
 128   0.0000       0.195925         5.3314 
 129   0.0000       0.228206         6.2098 
 130   0.0000       0.228262         6.2113 
 131   0.0000       0.230091         6.2611 
 132   0.0000       0.239449         6.5157 
 133   0.0000       0.246486         6.7072 
 134   0.0000       0.250089         6.8053 
 135   0.0000       0.250233         6.8092 
 136   0.0000       0.252183         6.8623 
 137   0.0000       0.252300         6.8654 
 138   0.0000       0.275059         7.4847 
 139   0.0000       0.276727         7.5301 
 140   0.0000       0.277328         7.5465 
 141   0.0000       0.283466         7.7135 
 142   0.0000       0.284194         7.7333 
 143   0.0000       0.292084         7.9480 
 144   0.0000       0.292897         7.9701 
 145   0.0000       0.293207         7.9786 
 146   0.0000       0.296537         8.0692 
 147   0.0000       0.297178         8.0866 
 148   0.0000       0.297973         8.1083 
 149   0.0000       0.299386         8.1467 
 150   0.0000       0.308448         8.3933 
 151   0.0000       0.308627         8.3982 
 152   0.0000       0.310678         8.4540 
 153   0.0000       0.312138         8.4937 
 154   0.0000       0.314235         8.5508 
 155   0.0000       0.327630         8.9153 
 156   0.0000       0.332015         9.0346 
 157   0.0000       0.332174         9.0389 
 158   0.0000       0.340917         9.2768 
 159   0.0000       0.343731         9.3534 
 160   0.0000       0.344092         9.3632 
 161   0.0000       0.354906         9.6575 
 162   0.0000       0.355706         9.6793 
 163   0.0000       0.356975         9.7138 
 164   0.0000       0.366283         9.9671 
 165   0.0000       0.372594        10.1388 
 166   0.0000       0.373016        10.1503 
 167   0.0000       0.374054        10.1785 
 168   0.0000       0.381881        10.3915 
 169   0.0000       0.382295        10.4028 
 170   0.0000       0.382854        10.4180 
 171   0.0000       0.389046        10.5865 
 172   0.0000       0.389730        10.6051 
 173   0.0000       0.390195        10.6177 
 174   0.0000       0.393199        10.6995 
 175   0.0000       0.393438        10.7060 
 176   0.0000       0.394290        10.7292 
 177   0.0000       0.397653        10.8207 
 178   0.0000       0.397893        10.8272 
 179   0.0000       0.411034        11.1848 
 180   0.0000       0.411563        11.1992 
 181   0.0000       0.413581        11.2541 
 182   0.0000       0.427406        11.6303 
 183   0.0000       0.428230        11.6527 
 184   0.0000       0.428387        11.6570 
 185   0.0000       0.428992        11.6735 
 186   0.0000       0.429206        11.6793 
 187   0.0000       0.431683        11.7467 
 188   0.0000       0.433187        11.7876 
 189   0.0000       0.433579        11.7983 
 190   0.0000       0.437076        11.8934 
 191   0.0000       0.437950        11.9172 
 192   0.0000       0.438636        11.9359 
 193   0.0000       0.451117        12.2755 
 194   0.0000       0.460813        12.5394 
 195   0.0000       0.461136        12.5481 
 196   0.0000       0.467291        12.7156 
 197   0.0000       0.470791        12.8109 
 198   0.0000       0.472274        12.8512 
 199   0.0000       0.473133        12.8746 
 200   0.0000       0.482162        13.1203 
 201   0.0000       0.483241        13.1497 
 202   0.0000       0.498731        13.5711 
 203   0.0000       0.507805        13.8181 
 204   0.0000       0.509725        13.8703 
 205   0.0000       0.510732        13.8977 
 206   0.0000       0.515255        14.0208 
 207   0.0000       0.516919        14.0661 
 208   0.0000       0.527333        14.3494 
 209   0.0000       0.534252        14.5377 
 210   0.0000       0.536095        14.5879 
 211   0.0000       0.537878        14.6364 
 212   0.0000       0.541957        14.7474 
 213   0.0000       0.546700        14.8765 
 214   0.0000       0.548463        14.9244 
 215   0.0000       0.551174        14.9982 
 216   0.0000       0.557976        15.1833 
 217   0.0000       0.558866        15.2075 
 218   0.0000       0.558985        15.2108 
 219   0.0000       0.575175        15.6513 
 220   0.0000       0.579355        15.7650 
 221   0.0000       0.581379        15.8201 
 222   0.0000       0.590081        16.0569 
 223   0.0000       0.591038        16.0830 
 224   0.0000       0.600596        16.3430 
 225   0.0000       0.603064        16.4102 
 226   0.0000       0.605110        16.4659 
 227   0.0000       0.607995        16.5444 
 228   0.0000       0.615805        16.7569 
 229   0.0000       0.618800        16.8384 
 230   0.0000       0.619366        16.8538 
 231   0.0000       0.619849        16.8670 
 232   0.0000       0.621984        16.9250 
 233   0.0000       0.623671        16.9710 
 234   0.0000       0.624648        16.9975 
 235   0.0000       0.625254        17.0140 
 236   0.0000       0.634232        17.2583 
 237   0.0000       0.644897        17.5485 
 238   0.0000       0.645044        17.5525 
 239   0.0000       0.646841        17.6014 
 240   0.0000       0.657541        17.8926 
 241   0.0000       0.658158        17.9094 
 242   0.0000       0.664367        18.0783 
 243   0.0000       0.679003        18.4766 
 244   0.0000       0.697025        18.9670 
 245   0.0000       0.698882        19.0175 
 246   0.0000       0.702690        19.1212 
 247   0.0000       0.703453        19.1419 
 248   0.0000       0.708327        19.2746 
 249   0.0000       0.713864        19.4252 
 250   0.0000       0.714042        19.4301 
 251   0.0000       0.714570        19.4444 
 252   0.0000       0.730302        19.8725 
 253   0.0000       0.736004        20.0277 
 254   0.0000       0.737609        20.0714 
 255   0.0000       0.737719        20.0743 
 256   0.0000       0.743626        20.2351 
 257   0.0000       0.746495        20.3132 
 258   0.0000       0.758707        20.6455 
 259   0.0000       0.759251        20.6603 
 260   0.0000       0.761251        20.7147 
 261   0.0000       0.761295        20.7159 
 262   0.0000       0.762007        20.7353 
 263   0.0000       0.779561        21.2129 
 264   0.0000       0.812143        22.0995 
 265   0.0000       0.828411        22.5422 
 266   0.0000       0.852891        23.2083 
 267   0.0000       0.853039        23.2124 
 268   0.0000       0.857011        23.3205 
 269   0.0000       0.857659        23.3381 
 270   0.0000       0.896193        24.3866 
 271   0.0000       0.898920        24.4609 
 272   0.0000       0.906328        24.6624 
 273   0.0000       0.907886        24.7048 
 274   0.0000       0.916326        24.9345 
 275   0.0000       0.923199        25.1215 
 276   0.0000       0.924281        25.1510 
 277   0.0000       0.942549        25.6481 
 278   0.0000       0.950678        25.8693 
 279   0.0000       0.951901        25.9025 
 280   0.0000       0.956382        26.0245 
 281   0.0000       0.957604        26.0577 
 282   0.0000       0.958958        26.0946 
 283   0.0000       0.961480        26.1632 
 284   0.0000       0.964692        26.2506 
 285   0.0000       0.965533        26.2735 
 286   0.0000       0.984505        26.7898 
 287   0.0000       1.007543        27.4166 
 288   0.0000       1.010875        27.5073 
 289   0.0000       1.011461        27.5233 
 290   0.0000       1.016144        27.6507 
 291   0.0000       1.017360        27.6838 
 292   0.0000       1.018145        27.7051 
 293   0.0000       1.030220        28.0337 
 294   0.0000       1.030532        28.0422 
 295   0.0000       1.039681        28.2912 
 296   0.0000       1.040532        28.3143 
 297   0.0000       1.041610        28.3437 
 298   0.0000       1.046388        28.4737 
 299   0.0000       1.046900        28.4876 
 300   0.0000       1.054600        28.6971 
 301   0.0000       1.060544        28.8589 
 302   0.0000       1.060703        28.8632 
 303   0.0000       1.061298        28.8794 
 304   0.0000       1.067107        29.0375 
 305   0.0000       1.067596        29.0508 
 306   0.0000       1.070353        29.1258 
 307   0.0000       1.088459        29.6185 
 308   0.0000       1.094939        29.7948 
 309   0.0000       1.097183        29.8559 
 310   0.0000       1.125057        30.6144 
 311   0.0000       1.131214        30.7819 
 312   0.0000       1.131548        30.7910 
 313   0.0000       1.132544        30.8181 
 314   0.0000       1.135415        30.8962 
 315   0.0000       1.136089        30.9146 
 316   0.0000       1.140149        31.0250 
 317   0.0000       1.141188        31.0533 
 318   0.0000       1.141932        31.0735 
 319   0.0000       1.146331        31.1933 
 320   0.0000       1.147853        31.2347 
 321   0.0000       1.148897        31.2631 
 322   0.0000       1.149480        31.2789 
 323   0.0000       1.152851        31.3707 
 324   0.0000       1.153744        31.3950 
 325   0.0000       1.154970        31.4283 
 326   0.0000       1.155493        31.4426 
 327   0.0000       1.160740        31.5853 
 328   0.0000       1.161107        31.5953 
 329   0.0000       1.170273        31.8447 
 330   0.0000       1.204053        32.7639 
 331   0.0000       1.205188        32.7948 
 332   0.0000       1.205440        32.8017 
 333   0.0000       1.206538        32.8316 
 334   0.0000       1.208967        32.8977 
 335   0.0000       1.209452        32.9109 
 336   0.0000       1.214317        33.0432 
 337   0.0000       1.214884        33.0587 
 338   0.0000       1.215232        33.0681 
 339   0.0000       1.216257        33.0960 
 340   0.0000       1.233578        33.5674 
 341   0.0000       1.233797        33.5733 
 342   0.0000       1.249388        33.9976 
 343   0.0000       1.270605        34.5749 
 344   0.0000       1.279503        34.8171 
 345   0.0000       1.279853        34.8266 
 346   0.0000       1.282497        34.8985 
 347   0.0000       1.290146        35.1067 
 348   0.0000       1.294307        35.2199 
 349   0.0000       1.294968        35.2379 
 350   0.0000       1.307351        35.5748 
 351   0.0000       1.308403        35.6034 
 352   0.0000       1.313427        35.7402 
 353   0.0000       1.327917        36.1344 
 354   0.0000       1.330442        36.2032 
 355   0.0000       1.331071        36.2203 
 356   0.0000       1.368185        37.2302 
 357   0.0000       1.368715        37.2446 
 358   0.0000       1.382008        37.6063 
 359   0.0000       1.384744        37.6808 
 360   0.0000       1.385476        37.7007 
 361   0.0000       1.402933        38.1757 
 362   0.0000       1.403654        38.1954 
 363   0.0000       1.405141        38.2358 
 364   0.0000       1.412010        38.4227 
 365   0.0000       1.428937        38.8834 
 366   0.0000       1.429642        38.9025 
 367   0.0000       1.437926        39.1280 
 368   0.0000       1.440500        39.1980 
 369   0.0000       1.441025        39.2123 
 370   0.0000       1.455076        39.5946 
 371   0.0000       1.455867        39.6162 
 372   0.0000       1.464217        39.8434 
 373   0.0000       1.485150        40.4130 
 374   0.0000       1.486940        40.4617 
 375   0.0000       1.487817        40.4856 
 376   0.0000       1.496303        40.7165 
 377   0.0000       1.497676        40.7538 
 378   0.0000       1.498218        40.7686 
 379   0.0000       1.505526        40.9675 
 380   0.0000       1.507085        41.0099 
 381   0.0000       1.508460        41.0473 
 382   0.0000       1.511731        41.1363 
 383   0.0000       1.517846        41.3027 
 384   0.0000       1.519143        41.3380 
 385   0.0000       1.530868        41.6570 
 386   0.0000       1.532746        41.7081 
 387   0.0000       1.533335        41.7242 
 388   0.0000       1.539683        41.8969 
 389   0.0000       1.540581        41.9213 
 390   0.0000       1.541135        41.9364 
 391   0.0000       1.553834        42.2820 
 392   0.0000       1.565163        42.5903 
 393   0.0000       1.565254        42.5927 
 394   0.0000       1.566495        42.6265 
 395   0.0000       1.571348        42.7585 
 396   0.0000       1.572155        42.7805 
 397   0.0000       1.583297        43.0837 
 398   0.0000       1.598620        43.5007 
 399   0.0000       1.598955        43.5098 
 400   0.0000       1.611803        43.8594 
 401   0.0000       1.615501        43.9600 
 402   0.0000       1.616455        43.9860 
 403   0.0000       1.621196        44.1150 
 404   0.0000       1.641957        44.6799 
 405   0.0000       1.645368        44.7727 
 406   0.0000       1.651201        44.9315 
 407   0.0000       1.651347        44.9354 
 408   0.0000       1.662398        45.2361 
 409   0.0000       1.662773        45.2464 
 410   0.0000       1.668405        45.3996 
 411   0.0000       1.668655        45.4064 
 412   0.0000       1.686188        45.8835 
 413   0.0000       1.686612        45.8951 
 414   0.0000       1.687964        45.9318 
 415   0.0000       1.688108        45.9357 
 416   0.0000       1.688276        45.9403 
 417   0.0000       1.708022        46.4776 
 418   0.0000       1.731403        47.1139 
 419   0.0000       1.731759        47.1236 
 420   0.0000       1.736009        47.2392 
 421   0.0000       1.744375        47.4668 
 422   0.0000       1.745283        47.4916 
 423   0.0000       1.750043        47.6211 
 424   0.0000       1.752656        47.6922 
 425   0.0000       1.753035        47.7025 
 426   0.0000       1.763300        47.9818 
 427   0.0000       1.763497        47.9872 
 428   0.0000       1.781016        48.4639 
 429   0.0000       1.801279        49.0153 
 430   0.0000       1.802055        49.0364 
 431   0.0000       1.806753        49.1642 
 432   0.0000       1.806989        49.1707 
 433   0.0000       1.812330        49.3160 
 434   0.0000       1.812668        49.3252 
 435   0.0000       1.819393        49.5082 
 436   0.0000       1.819786        49.5189 
 437   0.0000       1.825301        49.6690 
 438   0.0000       1.832512        49.8652 
 439   0.0000       1.832852        49.8744 
 440   0.0000       1.835564        49.9482 
 441   0.0000       1.840481        50.0820 
 442   0.0000       1.841174        50.1009 
 443   0.0000       1.851311        50.3767 
 444   0.0000       1.855816        50.4993 
 445   0.0000       1.855908        50.5018 
 446   0.0000       1.857689        50.5503 
 447   0.0000       1.858245        50.5654 
 448   0.0000       1.858897        50.5832 
 449   0.0000       1.870147        50.8893 
 450   0.0000       1.905632        51.8549 
 451   0.0000       1.906269        51.8722 
 452   0.0000       1.907286        51.8999 
 453   0.0000       1.926089        52.4116 
 454   0.0000       1.930873        52.5417 
 455   0.0000       1.932985        52.5992 
 456   0.0000       1.939636        52.7802 
 457   0.0000       1.939987        52.7897 
 458   0.0000       1.943769        52.8927 
 459   0.0000       1.944669        52.9171 
 460   0.0000       1.950995        53.0893 
 461   0.0000       1.951076        53.0915 
 462   0.0000       1.967274        53.5322 
 463   0.0000       1.969391        53.5898 
 464   0.0000       1.971308        53.6420 
 465   0.0000       1.971483        53.6468 
 466   0.0000       1.993124        54.2357 
 467   0.0000       1.997398        54.3520 
 468   0.0000       1.997545        54.3560 
 469   0.0000       2.007372        54.6234 
 470   0.0000       2.007468        54.6260 
 471   0.0000       2.015248        54.8377 
 472   0.0000       2.017175        54.8901 
 473   0.0000       2.017674        54.9037 
 474   0.0000       2.024043        55.0770 
 475   0.0000       2.032708        55.3128 
 476   0.0000       2.033195        55.3260 
 477   0.0000       2.039697        55.5030 
 478   0.0000       2.040197        55.5166 
 479   0.0000       2.043487        55.6061 
 480   0.0000       2.052746        55.8581 
 481   0.0000       2.053204        55.8705 
 482   0.0000       2.069114        56.3035 
 483   0.0000       2.081921        56.6519 
 484   0.0000       2.084764        56.7293 
 485   0.0000       2.086818        56.7852 
 486   0.0000       2.087332        56.7992 
 487   0.0000       2.105812        57.3021 
 488   0.0000       2.106180        57.3121 
 489   0.0000       2.110550        57.4310 
 490   0.0000       2.118617        57.6505 
 491   0.0000       2.118682        57.6523 
 492   0.0000       2.124624        57.8140 
 493   0.0000       2.126091        57.8539 
 494   0.0000       2.126509        57.8653 
 495   0.0000       2.151214        58.5375 
 496   0.0000       2.163017        58.8587 
 497   0.0000       2.179032        59.2945 
 498   0.0000       2.179440        59.3056 
 499   0.0000       2.193465        59.6872 
 500   0.0000       2.209433        60.1217 
 501   0.0000       2.213329        60.2277 
 502   0.0000       2.213961        60.2450 
 503   0.0000       2.224005        60.5183 
 504   0.0000       2.224904        60.5427 
 505   0.0000       2.225014        60.5457 
 506   0.0000       2.229473        60.6670 
 507   0.0000       2.229739        60.6743 
 508   0.0000       2.250515        61.2396 
 509   0.0000       2.250730        61.2455 
 510   0.0000       2.274542        61.8934 
 511   0.0000       2.275108        61.9088 
 512   0.0000       2.290736        62.3341 
 513   0.0000       2.296291        62.4853 
 514   0.0000       2.307780        62.7979 
 515   0.0000       2.308028        62.8046 
 516   0.0000       2.314377        62.9774 
 517   0.0000       2.326547        63.3086 
 518   0.0000       2.348054        63.8938 
 519   0.0000       2.348149        63.8964 
 520   0.0000       2.359013        64.1920 
 521   0.0000       2.359469        64.2044 
 522   0.0000       2.359723        64.2113 
 523   0.0000       2.395537        65.1859 
 524   0.0000       2.395682        65.1898 
 525   0.0000       2.417946        65.7957 
 526   0.0000       2.423797        65.9549 
 527   0.0000       2.424116        65.9636 
 528   0.0000       2.426673        66.0331 
 529   0.0000       2.435407        66.2708 
 530   0.0000       2.436198        66.2923 
 531   0.0000       2.446387        66.5696 
 532   0.0000       2.456901        66.8557 
 533   0.0000       2.457036        66.8594 
 534   0.0000       2.468051        67.1591 
 535   0.0000       2.468757        67.1783 
 536   0.0000       2.474260        67.3280 
 537   0.0000       2.479558        67.4722 
 538   0.0000       2.511272        68.3352 
 539   0.0000       2.512051        68.3564 
 540   0.0000       2.522405        68.6381 
 541   0.0000       2.550323        69.3978 
 542   0.0000       2.564752        69.7904 
 543   0.0000       2.565500        69.8108 
 544   0.0000       2.584361        70.3240 
 545   0.0000       2.588238        70.4295 
 546   0.0000       2.600074        70.7516 
 547   0.0000       2.600359        70.7594 
 548   0.0000       2.616712        71.2044 
 549   0.0000       2.617605        71.2286 
 550   0.0000       2.632954        71.6463 
 551   0.0000       2.633337        71.6567 
 552   0.0000       2.633585        71.6635 
 553   0.0000       2.671688        72.7003 
 554   0.0000       2.682871        73.0046 
 555   0.0000       2.694626        73.3245 
 556   0.0000       2.694898        73.3319 
 557   0.0000       2.739708        74.5512 
 558   0.0000       2.745386        74.7057 
 559   0.0000       2.747922        74.7748 
[...]
 521( 0) :     2.359470 a.u.    64.204 eV
 522( 0) :     2.359723 a.u.    64.211 eV
 523( 0) :     2.395533 a.u.    65.186 eV
 524( 0) :     2.395686 a.u.    65.190 eV
 525( 0) :     2.417947 a.u.    65.796 eV
 526( 0) :     2.423797 a.u.    65.955 eV
 527( 0) :     2.424119 a.u.    65.964 eV
 528( 0) :     2.426676 a.u.    66.033 eV
 529( 0) :     2.435408 a.u.    66.271 eV
 530( 0) :     2.436199 a.u.    66.292 eV
 531( 0) :     2.446387 a.u.    66.570 eV
 532( 0) :     2.456903 a.u.    66.856 eV
 533( 0) :     2.457039 a.u.    66.859 eV
 534( 0) :     2.468052 a.u.    67.159 eV
 535( 0) :     2.468760 a.u.    67.178 eV
 536( 0) :     2.474263 a.u.    67.328 eV
 537( 0) :     2.479557 a.u.    67.472 eV
 538( 0) :     2.511273 a.u.    68.335 eV
 539( 0) :     2.512053 a.u.    68.356 eV
 540( 0) :     2.522403 a.u.    68.638 eV
 541( 0) :     2.550325 a.u.    69.398 eV
 542( 0) :     2.564752 a.u.    69.790 eV
 543( 0) :     2.565497 a.u.    69.811 eV
 544( 0) :     2.584364 a.u.    70.324 eV
 545( 0) :     2.588232 a.u.    70.429 eV
 546( 0) :     2.600073 a.u.    70.752 eV
 547( 0) :     2.600360 a.u.    70.759 eV
 548( 0) :     2.616712 a.u.    71.204 eV
 549( 0) :     2.617601 a.u.    71.229 eV
 550( 0) :     2.632955 a.u.    71.646 eV
 551( 0) :     2.633338 a.u.    71.657 eV
 552( 0) :     2.633584 a.u.    71.663 eV
 553( 0) :     2.671688 a.u.    72.700 eV
 554( 0) :     2.682871 a.u.    73.005 eV
 555( 0) :     2.694626 a.u.    73.324 eV
 556( 0) :     2.694898 a.u.    73.332 eV
 557( 0) :     2.739711 a.u.    74.551 eV
 558( 0) :     2.745388 a.u.    74.706 eV
 559( 0) :     2.747922 a.u.    74.775 eV
 560( 0) :     2.748065 a.u.    74.779 eV
 561( 0) :     2.758010 a.u.    75.049 eV
 562( 0) :     2.758161 a.u.    75.053 eV
 563( 0) :     2.768240 a.u.    75.328 eV
 564( 0) :     2.768546 a.u.    75.336 eV
 565( 0) :     2.777426 a.u.    75.578 eV
 566( 0) :     2.785056 a.u.    75.785 eV
 567( 0) :     2.785416 a.u.    75.795 eV
 568( 0) :     2.791143 a.u.    75.951 eV
 569( 0) :     2.796086 a.u.    76.085 eV
 570( 0) :     2.796359 a.u.    76.093 eV
 571( 0) :     2.798370 a.u.    76.148 eV
 572( 0) :     2.818845 a.u.    76.705 eV
 573( 0) :     2.819593 a.u.    76.725 eV
 574( 0) :     2.856978 a.u.    77.742 eV
 575( 0) :     2.859708 a.u.    77.817 eV
 576( 0) :     2.860362 a.u.    77.834 eV
 577( 0) :     2.875838 a.u.    78.256 eV
 578( 0) :     2.876026 a.u.    78.261 eV
 579( 0) :     2.910693 a.u.    79.204 eV
 580( 0) :     2.911338 a.u.    79.222 eV
 581( 0) :     2.922600 a.u.    79.528 eV
 582( 0) :     2.922996 a.u.    79.539 eV
 583( 0) :     2.924759 a.u.    79.587 eV
 584( 0) :     2.934238 a.u.    79.845 eV
 585( 0) :     2.963035 a.u.    80.628 eV
 586( 0) :     2.964071 a.u.    80.656 eV
 587( 0) :     2.975519 a.u.    80.968 eV
 588( 0) :     2.986452 a.u.    81.265 eV
 589( 0) :     2.987168 a.u.    81.285 eV
 590( 0) :     3.063044 a.u.    83.350 eV
 591( 0) :     3.063491 a.u.    83.362 eV
 592( 0) :     3.067010 a.u.    83.458 eV
 593( 0) :     3.140882 a.u.    85.468 eV
 594( 0) :     3.799830 a.u.   103.399 eV
 595( 0) :     3.805469 a.u.   103.552 eV
 596( 0) :     3.834675 a.u.   104.347 eV
 597( 0) :     3.850315 a.u.   104.772 eV
 598( 0) :     3.885328 a.u.   105.725 eV
 599( 0) :     3.885919 a.u.   105.741 eV
 600( 0) :     5.167270 a.u.   140.609 eV
 601( 0) :     5.167591 a.u.   140.617 eV
 602( 0) :     5.176337 a.u.   140.855 eV
 603( 0) :     5.181874 a.u.   141.006 eV
 604( 0) :     5.182551 a.u.   141.024 eV
 605( 0) :     5.185004 a.u.   141.091 eV
 606( 0) :     5.280375 a.u.   143.686 eV
 607( 0) :     5.280469 a.u.   143.689 eV
 608( 0) :     5.285532 a.u.   143.827 eV
 609( 0) :     5.287571 a.u.   143.882 eV
 610( 0) :     5.287608 a.u.   143.883 eV
 611( 0) :     5.289822 a.u.   143.943 eV
 612( 0) :     5.298351 a.u.   144.175 eV
 613( 0) :     5.298526 a.u.   144.180 eV
 614( 0) :     5.301129 a.u.   144.251 eV
 615( 0) :     5.319135 a.u.   144.741 eV
 616( 0) :     5.319238 a.u.   144.744 eV
 617( 0) :     5.338321 a.u.   145.263 eV
 618( 0) :     5.371415 a.u.   146.164 eV
 619( 0) :     5.372142 a.u.   146.183 eV
 620( 0) :     5.383193 a.u.   146.484 eV
 621( 0) :     5.399142 a.u.   146.918 eV
 622( 0) :     5.399388 a.u.   146.925 eV
 623( 0) :     5.402824 a.u.   147.018 eV
 624( 0) :     5.416676 a.u.   147.395 eV
 625( 0) :     5.455539 a.u.   148.453 eV
 626( 0) :     5.455782 a.u.   148.459 eV
 627( 0) :     5.456214 a.u.   148.471 eV
 628( 0) :     5.486264 a.u.   149.289 eV
 629( 0) :     5.487001 a.u.   149.309 eV
 630( 0) :     5.487340 a.u.   149.318 eV
 631( 0) :     5.506776 a.u.   149.847 eV
 632( 0) :     5.520086 a.u.   150.209 eV
 633( 0) :     5.521197 a.u.   150.239 eV
 634( 0) :     5.545972 a.u.   150.914 eV
 635( 0) :     5.546131 a.u.   150.918 eV
 636( 0) :     5.557267 a.u.   151.221 eV
 637( 0) :     5.583964 a.u.   151.947 eV
 638( 0) :     5.587150 a.u.   152.034 eV
 639( 0) :     5.587465 a.u.   152.043 eV
 640( 0) :     5.646420 a.u.   153.647 eV
 641( 0) :     5.646501 a.u.   153.649 eV
 642( 0) :     5.669208 a.u.   154.267 eV
 643( 0) :     5.729578 a.u.   155.910 eV
 644( 0) :     5.730328 a.u.   155.930 eV
 645( 0) :     5.745429 a.u.   156.341 eV
 646( 0) :     5.753293 a.u.   156.555 eV
 647( 0) :     5.758473 a.u.   156.696 eV
 648( 0) :     5.758997 a.u.   156.710 eV
 649( 0) :     5.839107 a.u.   158.890 eV
 650( 0) :     5.839182 a.u.   158.892 eV
 651( 0) :     5.894621 a.u.   160.401 eV
 652( 0) :     5.990108 a.u.   162.999 eV
 653( 0) :     5.990222 a.u.   163.002 eV
 654( 0) :     6.074579 a.u.   165.298 eV
 655( 0) :     6.074938 a.u.   165.307 eV
 656( 0) :     6.085166 a.u.   165.586 eV
 657( 0) :     6.096982 a.u.   165.907 eV
 658( 0) :     6.107049 a.u.   166.181 eV
 659( 0) :     6.107220 a.u.   166.186 eV
 660( 0) :     6.114714 a.u.   166.390 eV
 661( 0) :     6.115080 a.u.   166.400 eV
 662( 0) :     6.121903 a.u.   166.585 eV
 663( 0) :     7.460531 a.u.   203.011 eV
 664( 0) :    29.649993 a.u.   806.817 eV
 665( 0) :    29.717736 a.u.   808.661 eV
 666( 0) :    29.717995 a.u.   808.668 eV
 667( 0) :    29.782758 a.u.   810.430 eV
 668( 0) :    29.793263 a.u.   810.716 eV
 669( 0) :    29.793419 a.u.   810.720 eV
 670( 0) :    29.832332 a.u.   811.779 eV
 671( 0) :    30.009919 a.u.   816.611 eV
 672( 0) :    30.010416 a.u.   816.625 eV
 673( 0) :    30.019246 a.u.   816.865 eV
 674( 0) :    30.035435 a.u.   817.306 eV
 675( 0) :    30.041171 a.u.   817.462 eV
 676( 0) :    30.041373 a.u.   817.467 eV
 677( 0) :    30.108517 a.u.   819.294 eV
 678( 0) :    30.108643 a.u.   819.298 eV
 679( 0) :    30.148931 a.u.   820.394 eV
 680( 0) :    30.240227 a.u.   822.878 eV
 681( 0) :    30.240305 a.u.   822.881 eV
 682( 0) :    30.295774 a.u.   824.390 eV
 683( 0) :    30.295951 a.u.   824.395 eV
 684( 0) :    30.319255 a.u.   825.029 eV
 685( 0) :    30.321275 a.u.   825.084 eV
 686( 0) :    30.329317 a.u.   825.303 eV
 687( 0) :    30.329439 a.u.   825.306 eV
 688( 0) :    30.333857 a.u.   825.426 eV
 689( 0) :    30.338850 a.u.   825.562 eV
 690( 0) :    30.338977 a.u.   825.566 eV
 691( 0) :    36.673567 a.u.   997.938 eV
 692( 0) :    36.681690 a.u.   998.160 eV
 693( 0) :    36.681818 a.u.   998.163 eV
 694( 0) :    36.764123 a.u.  1000.403 eV
 695( 0) :    36.766109 a.u.  1000.457 eV
 696( 0) :    36.774641 a.u.  1000.689 eV
 697( 0) :    36.862961 a.u.  1003.092 eV
 698( 0) :    36.878767 a.u.  1003.522 eV
 699( 0) :    36.878996 a.u.  1003.528 eV
 700( 0) :    36.893355 a.u.  1003.919 eV
 701( 0) :    36.893409 a.u.  1003.921 eV
 702( 0) :    36.893498 a.u.  1003.923 eV
 703( 0) :    36.894584 a.u.  1003.953 eV
 704( 0) :    36.905609 a.u.  1004.253 eV
 705( 0) :    36.905832 a.u.  1004.259 eV
 706( 0) :    36.909058 a.u.  1004.347 eV
 707( 0) :    36.909192 a.u.  1004.350 eV
 708( 0) :    36.939163 a.u.  1005.166 eV
 709( 0) :    36.962099 a.u.  1005.790 eV
 710( 0) :    36.962188 a.u.  1005.792 eV
 711( 0) :    36.978880 a.u.  1006.246 eV
 712( 0) :    36.987487 a.u.  1006.481 eV
 713( 0) :    37.012454 a.u.  1007.160 eV
 714( 0) :    37.012887 a.u.  1007.172 eV
 715( 0) :    37.015736 a.u.  1007.249 eV
 716( 0) :    37.026777 a.u.  1007.550 eV
 717( 0) :    37.032225 a.u.  1007.698 eV
 718( 0) :    37.105347 a.u.  1009.688 eV
 719( 0) :    37.105764 a.u.  1009.699 eV
 720( 0) :    37.111746 a.u.  1009.862 eV
 721( 0) :    37.245596 a.u.  1013.504 eV
 722( 0) :    37.253982 a.u.  1013.732 eV
 723( 0) :    37.269631 a.u.  1014.158 eV
 724( 0) :    37.358249 a.u.  1016.570 eV
 725( 0) :    37.370927 a.u.  1016.915 eV
 726( 0) :    37.371059 a.u.  1016.918 eV
 727( 0) :    41.163154 a.u.  1120.106 eV
-------
TIMINGS
-------

Total SCF time: 0 days 0 hours 1 min 10 sec 

Total time                  ....      70.428 sec
Sum of individual times     ....      66.897 sec  ( 95.0%)

Fock matrix formation       ....      44.411 sec  ( 63.1%)
  Split-RI-J                ....      24.915 sec  ( 56.1% of F)
  XC integration            ....      12.588 sec  ( 28.3% of F)
    Basis function eval.    ....       0.348 sec  (  2.8% of XC)
    Density eval.           ....       0.920 sec  (  7.3% of XC)
    XC-Functional eval.     ....       0.055 sec  (  0.4% of XC)
    XC-Potential eval.      ....       1.231 sec  (  9.8% of XC)
Diagonalization             ....       8.131 sec  ( 11.5%)
Density matrix formation    ....       0.612 sec  (  0.9%)
Population analysis         ....       4.263 sec  (  6.1%)
Initial guess               ....       0.760 sec  (  1.1%)
Orbital Transformation      ....       0.000 sec  (  0.0%)
Orbital Orthonormalization  ....       0.000 sec  (  0.0%)
DIIS solution               ....       5.678 sec  (  8.1%)
Grid generation             ....       3.043 sec  (  4.3%)

-------------------------   --------------------
FINAL SINGLE POINT ENERGY     -1103.168035885366
-------------------------   --------------------

   --->>> SOC part of D-tensor requested, so NeedSOC=true

                            ***************************************
                            *     ORCA property calculations      *
                            ***************************************

                                    ---------------------
                                    Active property flags
                                    ---------------------
   (+) Dipole Moment
   (+) D-tensor
   (+) Spin-Orbit Integrals are needed


------------------------------------------------------------------------------
                       ORCA ELECTRIC PROPERTIES CALCULATION
------------------------------------------------------------------------------

Dipole Moment Calculation                       ... on
Quadrupole Moment Calculation                   ... off
Polarizability Calculation                      ... off
GBWName                                         ... zfs.gbw
Electron density file                           ... zfs.scfp
The origin for moment calculation is the CENTER OF MASS  = (-0.000031,  0.000045 -3.167486)

-------------
DIPOLE MOMENT
-------------
                                X             Y             Z
Electronic contribution:      0.00914       0.00211       1.06758
Nuclear contribution   :      0.00180      -0.00336      -0.32886
                        -----------------------------------------
Total Dipole Moment    :      0.01094      -0.00125       0.73872
                        -----------------------------------------
Magnitude (a.u.)       :      0.73880
Magnitude (Debye)      :      1.87787



--------------------
Rotational spectrum 
--------------------
 
Rotational constants in cm-1:     0.009246     0.009141     0.009141 
Rotational constants in MHz :   277.183097   274.048600   274.045280 

 Dipole components along the rotational axes: 
x,y,z [a.u.] :     0.738720    -0.006294    -0.008609 
x,y,z [Debye]:     1.877678    -0.015999    -0.021883 

 


           ************************************************************
           *        Program running with 72 parallel MPI-processes    *
           *              working on a shared directory               *
           ************************************************************
------------------------------------------------------------------------------
                         ORCA SPIN-ORBIT COUPLING CALCULATION
------------------------------------------------------------------------------

GBW file                                    ... zfs.gbw
Input density                               ... zfs.scfp
Output integrals                            ... zfs
Operator type                               ... Mean-field/Effective potential
   One-Electron Terms                       ... 1
   Coulomb Contribution                     ... 2
   Exchange Contribution                    ... 3
   Correlation Contribution                 ... 0
   Maximum number of centers                ... 4
Setting up the integration grid             ... done
Evaluating density on the grid              ... (NumEl=  205.997860) done
Evaluating Coulomb term semi-analytically   ... done
One-Center Exchange (+SOO)                  ... done
Evaluating the spin-orbit operator          ... done
Total time for SOC: 64.241


           ************************************************************
           *        Program running with 72 parallel MPI-processes    *
           *              working on a shared directory               *
           ************************************************************
------------------------------------------------------------------------------
                                ORCA EPR/NMR CALCULATION
------------------------------------------------------------------------------

GBWName                      ... zfs.gbw
Electron density file        ... zfs.scfp
Spin density file            ... zfs.scfr
Spin-orbit integrals         ... zfs
Multiplicity                 ... 3
g-tensor                     ... 0
NMR chemical shifts          ... 0
D-tensor                     ... spin-spin and spin-orbit
D(SS)-algorithm              ... spin-density from UNOs
D(SOC)-algorithm             ... CP (=Coupled-perturbed)
Active orbitals for UNO spin density= 102 .. 103

Starting the spin-spin zero-field-splitting computation (UNO)...
                        ... done with spin-spin calculation

Starting the spin-orbit zero-field-splitting computation (CP)...
Transforming integrals                       ... Max(Pert)=   5.6151e-06
Warning: Perturbation too small - adjusting
Transforming integrals                       ... Max(Pert)=   6.1148e-05
Warning: Perturbation too small - adjusting
Transforming integrals                       ... Max(Pert)=   6.6590e-04
Warning: Perturbation too small - adjusting
Transforming integrals                       ... Max(Pert)=   7.2517e-03
done
    ... no HF exchange - skipping linear equations
ZFS-Tensor - using the prefactors
   -1/(4S**2) for same spin
    1/(2*S*(2*S-1)) for alpha->beta
    1/((S+1)*(2*S+1)) for beta->alpha
                        ... done with spin-orbit calculation

---------------------------
ZERO-FIELD-SPLITTING TENSOR
---------------------------

raw-matrix : 
   0.019980    -0.000003    -0.000038  
  -0.000003     0.019892    -0.000001  
  -0.000038    -0.000001     0.087161  

Tensor is right-handed
diagonalized D matrix : 
   0.019892     0.019980     0.087161  

  -0.033670     0.999433    -0.000572  
  -0.999433    -0.033670    -0.000013  
  -0.000032     0.000572     1.000000  


Direction X=1 Y=0 Z=2
D   =     0.067225  cm**-1
E/D =     0.000662

SPIN-SPIN-PART
                   0          1          2    
      0      -0.021866  -0.000003  -0.000030
      1      -0.000003  -0.021936  -0.000001
      2      -0.000030  -0.000001   0.043802
Exchange and Coulomb parts of SS (raw)
Coulomb
                   0          1          2    
      0      -0.020716  -0.001381  -0.000089
      1      -0.001381  -0.011460   0.000015
      2      -0.000089   0.000015   0.032176
Exchange
                   0          1          2    
      0      -0.001150   0.001378   0.000060
      1       0.001378  -0.010476  -0.000016
      2       0.000060  -0.000016   0.011626
One-, two-, three- and four-center SS contributions (raw)
One-Center            (AA|AA):
                   0          1          2    
      0      -0.001425   0.000003   0.000069
      1       0.000003  -0.001586  -0.000002
      2       0.000069  -0.000002   0.003011
Two-Center-Coulomb    (AA|BB):
                   0          1          2    
      0      -0.375746   0.000273  -0.008069
      1       0.000273  -0.316007  -0.000059
      2      -0.008069  -0.000059   0.691753
Two-Center-Exchange   (AB|BA):
                   0          1          2    
      0      -0.016420   0.000053   0.000378
      1       0.000053  -0.012537  -0.000023
      2       0.000378  -0.000023   0.028956
Two-Center-hybrid     (AA|AB):
                   0          1          2    
      0       0.002065  -0.000024  -0.000855
      1      -0.000024   0.000837  -0.000005
      2      -0.000855  -0.000005  -0.002902
Three-Center-Coulomb  (AA|BC):
                   0          1          2    
      0       0.647320  -0.000464   0.013286
      1      -0.000464   0.538901   0.000030
      2       0.013286   0.000030  -1.186221
Three-Center-Exchange (AB|AC):
                   0          1          2    
      0      -0.001639  -0.000103   0.000687
      1      -0.000103  -0.006928   0.000055
      2       0.000687   0.000055   0.008567
Four-Center           (AB|CD):
                   0          1          2    
      0      -0.276022   0.000259  -0.005525
      1       0.000259  -0.224616   0.000004
      2      -0.005525   0.000004   0.500638
ALPHA-PART
                   0          1          2    
      0      -0.113523   0.000000   0.000009
      1       0.000000  -0.113512  -0.000002
      2       0.000009  -0.000002  -0.108850
BETA-PART
                   0          1          2    
      0      -0.111425   0.000000   0.000022
      1       0.000000  -0.111421  -0.000001
      2       0.000022  -0.000001  -0.104875
ALPHA->BETA-PART
                   0          1          2    
      0       0.230179  -0.000000  -0.000034
      1      -0.000000   0.230144   0.000002
      2      -0.000034   0.000002   0.222867
BETA->ALPHA-PART
                   0          1          2    
      0       0.036615  -0.000000  -0.000005
      1      -0.000000   0.036616   0.000000
      2      -0.000005   0.000000   0.034218

Individual contributions (in cm**-1)
                                   D         E
SPIN-SPIN                  :   0.06570    0.00004
  Exchange vs Coulomb
  Coulomb                  :   0.04826   -0.00452
  Exchange                 :   0.01744    0.00456
  One through four center contributions:
  1-center                 :   0.00452    0.00008
  2-center-Coulomb         :   1.03764   -0.02982
  2-center-Exchange        :   0.04343   -0.00194
  2-center-Hybrid          :  -0.00435    0.00061
  3-center-Coulomb         :  -1.77935    0.05413
  3-center-Exchange        :   0.01285    0.00265
  4-center                 :   0.75097   -0.02567
SPIN-ORBIT                 :   0.00152    0.00001
SOMO->VMO  (alpha->alpha)  :   0.00467   -0.00001
DOMO->SOMO (beta ->beta )  :   0.00655   -0.00000
SOMO->SOMO (alpha->beta )  :  -0.00729    0.00002
DOMO->VMO  (beta ->alpha)  :  -0.00240   -0.00000


Timings for individual modules:

Sum of individual times         ...      264.763 sec (=   4.413 min)
GTO integral calculation        ...       14.964 sec (=   0.249 min)   5.7 %
Spin-Orbit-Coupling Matrices    ...       64.230 sec (=   1.070 min)  24.3 %
SCF iterations                  ...       79.657 sec (=   1.328 min)  30.1 %
EPR/NMR calculation             ...      105.913 sec (=   1.765 min)  40.0 %
                             ****ORCA TERMINATED NORMALLY****
TOTAL RUN TIME: 0 days 0 hours 4 minutes 42 seconds 34 msec
