ANIMSTEPS   6
CRYSTAL
PRIMVEC
    2.506740007    0.000000000    0.000000000
   -1.253370004    2.170901054    0.000000000
    0.000000000    0.000000000   14.999999857
PRIMCOORD  1
      2   1
   B     -0.00000   1.44727   7.50000   0.00000   0.00000   0.07150
   N      1.25337   0.72363   7.50000   0.00000   0.00000   0.06991
PRIMCOORD  2
      2   1
   B     -0.00000   1.44727   7.50000   0.00000  -0.07093   0.00000
   N      1.25337   0.72363   7.50000   0.00000  -0.07049   0.00000
PRIMCOORD  3
      2   1
   B     -0.00000   1.44727   7.50000  -0.07093   0.00000   0.00000
   N      1.25337   0.72363   7.50000  -0.07049   0.00000   0.00000
PRIMCOORD  4
      2   1
   B     -0.00000   1.44727   7.50000   0.00000  -0.00000   0.07849
   N      1.25337   0.72363   7.50000   0.00000  -0.00000  -0.06196
PRIMCOORD  5
      2   1
   B     -0.00000   1.44727   7.50000   0.00000  -0.07898  -0.00000
   N      1.25337   0.72363   7.50000   0.00000   0.06134   0.00000
PRIMCOORD  6
      2   1
   B     -0.00000   1.44727   7.50000  -0.07898   0.00000   0.00000
   N      1.25337   0.72363   7.50000   0.06134   0.00000   0.00000
