
     Program PHONON v.6.1 (svn rev. 13369) starts on  9Mar2020 at 16:37:26 

     This program is part of the open-source Quantum ESPRESSO suite
     for quantum simulation of materials; please cite
         "P. Giannozzi et al., J. Phys.:Condens. Matter 21 395502 (2009);
          URL http://www.quantum-espresso.org", 
     in publications or presentations arising from this work. More details at
     http://www.quantum-espresso.org/quote

     Parallel version (MPI), running on    32 processors
     K-points division:     npool     =       4
     R & G space division:  proc/nbgrp/npool/nimage =       8

     Reading data from directory:
     ./temp/BN.save

   Info: using nr1, nr2, nr3 values from input

   Info: using nr1, nr2, nr3 values from input

     IMPORTANT: XC functional enforced from input :
     Exchange-correlation      = PBE ( 1  4  3  4 0 0)
     Any further DFT definition will be discarded
     Please, verify this is what you really want

 
     Parallelization info
     --------------------
     sticks:   dense  smooth     PW     G-vecs:    dense   smooth      PW
     Min          69      69     20                 7937     7937    1292
     Max          70      70     21                 7958     7958    1315
     Sum         559     559    163                63597    63597   10395
 
  autoval = -.5010E+00
     Irreps are as follows:

                     mode #   1
                     (  -1.00000   0.00000   ) 
                     (   0.00047   0.00000   ) 
                     (  -0.00000   0.00000   ) 
                     (   0.00000   0.00000   ) 
                     (   0.00000   0.00000   ) 
                     (   0.00000   0.00000   ) 
  autoval = -.5010E+00
     Irreps are as follows:

                     mode #   2
                     (  -0.00047   0.00000   ) 
                     (  -1.00000   0.00000   ) 
                     (  -0.00000   0.00000   ) 
                     (   0.00000   0.00000   ) 
                     (   0.00000   0.00000   ) 
                     (   0.00000   0.00000   ) 
  autoval = -.4173E+00
     Irreps are as follows:

                     mode #   3
                     (   0.00000   0.00000   ) 
                     (   0.00000   0.00000   ) 
                     (   0.00000   0.00000   ) 
                     (  -1.00000   0.00000   ) 
                     (   0.00047   0.00000   ) 
                     (   0.00000   0.00000   ) 
  autoval = -.4173E+00
     Irreps are as follows:

                     mode #   4
                     (   0.00000   0.00000   ) 
                     (   0.00000   0.00000   ) 
                     (   0.00000   0.00000   ) 
                     (  -0.00047   0.00000   ) 
                     (  -1.00000   0.00000   ) 
                     (   0.00000   0.00000   ) 
  autoval = -.1329E-01
     Irreps are as follows:

                     mode #   5
                     (   0.00000   0.00000   ) 
                     (   0.00000   0.00000   ) 
                     (   0.00000   0.00000   ) 
                     (   0.00000   0.00000   ) 
                     (   0.00000   0.00000   ) 
                     (  -1.00000   0.00000   ) 
  autoval = -.4966E-02
     Irreps are as follows:

                     mode #   6
                     (   0.00000   0.00000   ) 
                     (   0.00000   0.00000   ) 
                     (  -1.00000   0.00000   ) 
                     (   0.00000   0.00000   ) 
                     (   0.00000   0.00000   ) 
                     (   0.00000   0.00000   ) 

     Calculation of q =    0.0000000   0.0000000   0.0000000

                                                                                

     bravais-lattice index     =            0
     lattice parameter (alat)  =       4.7371  a.u.
     unit-cell volume          =     550.8549 (a.u.)^3
     number of atoms/cell      =            2
     number of atomic types    =            2
     kinetic-energy cut-off    =      90.0000  Ry
     charge density cut-off    =     360.0000  Ry
     convergence threshold     =      1.0E-12
     beta                      =       0.7000
     number of iterations used =            4
     Exchange-correlation      = PBE ( 1  4  3  4 0 0)


     celldm(1)=    4.73705  celldm(2)=    0.00000  celldm(3)=    0.00000
     celldm(4)=    0.00000  celldm(5)=    0.00000  celldm(6)=    0.00000

     crystal axes: (cart. coord. in units of alat)
               a(1) = (  1.0000  0.0000  0.0000 )  
               a(2) = ( -0.5000  0.8660  0.0000 )  
               a(3) = (  0.0000  0.0000  5.9839 )  

     reciprocal axes: (cart. coord. in units 2 pi/alat)
               b(1) = (  1.0000  0.5774  0.0000 )  
               b(2) = (  0.0000  1.1547  0.0000 )  
               b(3) = (  0.0000  0.0000  0.1671 )  


     Atoms inside the unit cell: 

     Cartesian axes

     site n.  atom      mass           positions (alat units)
        1     B   10.8110   tau(    1) = (   -0.00000    0.57735    2.99193  )
        2     N   14.0067   tau(    2) = (    0.50000    0.28867    2.99193  )

     Computing dynamical matrix for 
                    q = (   0.0000000   0.0000000   0.0000000 )
 
     13 Sym.Ops. (with q -> -q+G )

                                    s                        frac. trans.

      isym =  1     identity                                     

 cryst.   s( 1) = (     1          0          0      )
                  (     0          1          0      )
                  (     0          0          1      )

 cart.    s( 1) = (  1.0000000  0.0000000  0.0000000 )
                  (  0.0000000  1.0000000  0.0000000 )
                  (  0.0000000  0.0000000  1.0000000 )


      isym =  2     180 deg rotation - cart. axis [0,1,0]        

 cryst.   s( 2) = (    -1          0          0      )
                  (     1          1          0      )
                  (     0          0         -1      )

 cart.    s( 2) = ( -1.0000000  0.0000000  0.0000000 )
                  (  0.0000000  1.0000000  0.0000000 )
                  (  0.0000000  0.0000000 -1.0000000 )


      isym =  3     120 deg rotation - cryst. axis [0,0,1]       

 cryst.   s( 3) = (     0          1          0      )
                  (    -1         -1          0      )
                  (     0          0          1      )

 cart.    s( 3) = ( -0.5000000 -0.8660252  0.0000000 )
                  (  0.8660256 -0.5000000  0.0000000 )
                  (  0.0000000  0.0000000  1.0000000 )


      isym =  4     120 deg rotation - cryst. axis [0,0,-1]      

 cryst.   s( 4) = (    -1         -1          0      )
                  (     1          0          0      )
                  (     0          0          1      )

 cart.    s( 4) = ( -0.5000000  0.8660252  0.0000000 )
                  ( -0.8660256 -0.5000000  0.0000000 )
                  (  0.0000000  0.0000000  1.0000000 )


      isym =  5     180 deg rotation - cryst. axis [1,-1,0]      

 cryst.   s( 5) = (     0         -1          0      )
                  (    -1          0          0      )
                  (     0          0         -1      )

 cart.    s( 5) = (  0.5000000 -0.8660252  0.0000000 )
                  ( -0.8660256 -0.5000000  0.0000000 )
                  (  0.0000000  0.0000000 -1.0000000 )


      isym =  6     180 deg rotation - cryst. axis [2,1,0]       

 cryst.   s( 6) = (     1          1          0      )
                  (     0         -1          0      )
                  (     0          0         -1      )

 cart.    s( 6) = (  0.5000000  0.8660252  0.0000000 )
                  (  0.8660256 -0.5000000  0.0000000 )
                  (  0.0000000  0.0000000 -1.0000000 )


      isym =  7     inv. 180 deg rotation - cart. axis [0,0,1]   

 cryst.   s( 7) = (     1          0          0      )
                  (     0          1          0      )
                  (     0          0         -1      )

 cart.    s( 7) = (  1.0000000  0.0000000  0.0000000 )
                  (  0.0000000  1.0000000  0.0000000 )
                  (  0.0000000  0.0000000 -1.0000000 )


      isym =  8     inv. 180 deg rotation - cart. axis [1,0,0]   

 cryst.   s( 8) = (    -1          0          0      )
                  (     1          1          0      )
                  (     0          0          1      )

 cart.    s( 8) = ( -1.0000000  0.0000000  0.0000000 )
                  (  0.0000000  1.0000000  0.0000000 )
                  (  0.0000000  0.0000000  1.0000000 )


      isym =  9     inv.  60 deg rotation - cryst. axis [0,0,1]  

 cryst.   s( 9) = (    -1         -1          0      )
                  (     1          0          0      )
                  (     0          0         -1      )

 cart.    s( 9) = ( -0.5000000  0.8660252  0.0000000 )
                  ( -0.8660256 -0.5000000  0.0000000 )
                  (  0.0000000  0.0000000 -1.0000000 )


      isym = 10     inv.  60 deg rotation - cryst. axis [0,0,-1] 

 cryst.   s(10) = (     0          1          0      )
                  (    -1         -1          0      )
                  (     0          0         -1      )

 cart.    s(10) = ( -0.5000000 -0.8660252  0.0000000 )
                  (  0.8660256 -0.5000000  0.0000000 )
                  (  0.0000000  0.0000000 -1.0000000 )


      isym = 11     inv. 180 deg rotation - cryst. axis [0,1,0]  

 cryst.   s(11) = (     1          1          0      )
                  (     0         -1          0      )
                  (     0          0          1      )

 cart.    s(11) = (  0.5000000  0.8660252  0.0000000 )
                  (  0.8660256 -0.5000000  0.0000000 )
                  (  0.0000000  0.0000000  1.0000000 )


      isym = 12     inv. 180 deg rotation - cryst. axis [1,1,0]  

 cryst.   s(12) = (     0         -1          0      )
                  (    -1          0          0      )
                  (     0          0          1      )

 cart.    s(12) = (  0.5000000 -0.8660252  0.0000000 )
                  ( -0.8660256 -0.5000000  0.0000000 )
                  (  0.0000000  0.0000000  1.0000000 )


     This transformation sends q -> -q+G

      isym = 13     identity                                     

 cryst.   s(13) = (     1          0          0      )
                  (     0          1          0      )
                  (     0          0          1      )

 cart.    s(13) = (  1.0000000  0.0000000  0.0000000 )
                  (  0.0000000  1.0000000  0.0000000 )
                  (  0.0000000  0.0000000  1.0000000 )


     G cutoff =  204.6252  (   7948 G-vectors)     FFT grid: ( 30, 30,180)
     number of k points=    19
                       cart. coord. in units 2pi/alat
        k(    1) = (   0.0000000   0.0000000   0.0000000), wk =   0.0138889
        k(    2) = (   0.0000000   0.0962250   0.0000000), wk =   0.0833333
        k(    3) = (   0.0000000   0.1924500   0.0000000), wk =   0.0833333
        k(    4) = (   0.0000000   0.2886751   0.0000000), wk =   0.0833333
        k(    5) = (   0.0000000   0.3849001   0.0000000), wk =   0.0833333
        k(    6) = (   0.0000000   0.4811251   0.0000000), wk =   0.0833333
        k(    7) = (   0.0000000  -0.5773501   0.0000000), wk =   0.0416667
        k(    8) = (   0.0833333   0.1443375   0.0000000), wk =   0.0833333
        k(    9) = (   0.0833333   0.2405626   0.0000000), wk =   0.1666667
        k(   10) = (   0.0833333   0.3367876   0.0000000), wk =   0.1666667
        k(   11) = (   0.0833333   0.4330126   0.0000000), wk =   0.1666667
        k(   12) = (   0.0833333   0.5292376   0.0000000), wk =   0.1666667
        k(   13) = (   0.1666667   0.2886751   0.0000000), wk =   0.0833333
        k(   14) = (   0.1666667   0.3849001   0.0000000), wk =   0.1666667
        k(   15) = (   0.1666667   0.4811251   0.0000000), wk =   0.1666667
        k(   16) = (   0.1666667   0.5773501   0.0000000), wk =   0.0833333
        k(   17) = (   0.2500000   0.4330126   0.0000000), wk =   0.0833333
        k(   18) = (   0.2500000   0.5292376   0.0000000), wk =   0.1666667
        k(   19) = (   0.3333333   0.5773501   0.0000000), wk =   0.0277778

                       cryst. coord.
        k(    1) = (   0.0000000   0.0000000   0.0000000), wk =   0.0138889
        k(    2) = (   0.0000000   0.0833333   0.0000000), wk =   0.0833333
        k(    3) = (   0.0000000   0.1666667   0.0000000), wk =   0.0833333
        k(    4) = (   0.0000000   0.2500000   0.0000000), wk =   0.0833333
        k(    5) = (   0.0000000   0.3333333   0.0000000), wk =   0.0833333
        k(    6) = (   0.0000000   0.4166667   0.0000000), wk =   0.0833333
        k(    7) = (   0.0000000  -0.5000000   0.0000000), wk =   0.0416667
        k(    8) = (   0.0833333   0.0833333   0.0000000), wk =   0.0833333
        k(    9) = (   0.0833333   0.1666667   0.0000000), wk =   0.1666667
        k(   10) = (   0.0833333   0.2500000   0.0000000), wk =   0.1666667
        k(   11) = (   0.0833333   0.3333333   0.0000000), wk =   0.1666667
        k(   12) = (   0.0833333   0.4166667   0.0000000), wk =   0.1666667
        k(   13) = (   0.1666667   0.1666667   0.0000000), wk =   0.0833333
        k(   14) = (   0.1666667   0.2500000   0.0000000), wk =   0.1666667
        k(   15) = (   0.1666667   0.3333333   0.0000000), wk =   0.1666667
        k(   16) = (   0.1666667   0.4166667   0.0000000), wk =   0.0833333
        k(   17) = (   0.2500000   0.2500000   0.0000000), wk =   0.0833333
        k(   18) = (   0.2500000   0.3333333   0.0000000), wk =   0.1666667
        k(   19) = (   0.3333333   0.3333333   0.0000000), wk =   0.0277778

     PseudoPot. # 1 for B  read from file:
     /home/tjsmart/Pseudo/B_ONCV_PBE-1.0.upf
     MD5 check sum: a9fd2462c33df863cd3ce8a66ea40380
     Pseudo is Norm-conserving, Zval =  3.0
     Generated using ONCVPSP code by D. R. Hamann
     Using radial grid of 1534 points,  4 beta functions with: 
                l(1) =   0
                l(2) =   0
                l(3) =   1
                l(4) =   1

     PseudoPot. # 2 for N  read from file:
     /home/tjsmart/Pseudo/N_ONCV_PBE-1.0.upf
     MD5 check sum: 09890da6b2972017450f7114a6086fad
     Pseudo is Norm-conserving, Zval =  5.0
     Generated using ONCVPSP code by D. R. Hamann
     Using radial grid of 1058 points,  4 beta functions with: 
                l(1) =   0
                l(2) =   0
                l(3) =   1
                l(4) =   1

     point group D_3h (-62m)
     there are  6 classes
     the character table:

       E     2C3   3C2   s_h   2S3   3s_v 
A'_1   1.00  1.00  1.00  1.00  1.00  1.00
A'_2   1.00  1.00 -1.00  1.00  1.00 -1.00
E'     2.00 -1.00  0.00  2.00 -1.00  0.00
A''1   1.00  1.00  1.00 -1.00 -1.00 -1.00
A''2   1.00  1.00 -1.00 -1.00 -1.00  1.00
E''    2.00 -1.00  0.00 -2.00  1.00  0.00

     the symmetry operations in each class and the name of the first element:

     E        1
                                                                 
     2C3      3    4
                                                                 
     3C2      2    6    5
                                                                 
     s_h      7
                                                                 
     2S3      9   10
                                                                 
     3s_v     8   11   12
                                                                 


     Electric field:
     Dielectric constant
     Born effective charges as d Force / d E


     Atomic displacements:
     There are   4 irreducible representations

     Representation     1      2 modes -E'  To be done
     Irreps are as follows:

           mode #   1                           mode #   2
           (  -1.00000   0.00000   )            (  -0.00047   0.00000   ) 
           (   0.00047   0.00000   )            (  -1.00000   0.00000   ) 
           (  -0.00000   0.00000   )            (  -0.00000   0.00000   ) 
           (   0.00000   0.00000   )            (   0.00000   0.00000   ) 
           (   0.00000   0.00000   )            (   0.00000   0.00000   ) 
           (   0.00000   0.00000   )            (   0.00000   0.00000   ) 

     Representation     2      2 modes -E'  To be done
     Irreps are as follows:

           mode #   3                           mode #   4
           (   0.00000   0.00000   )            (   0.00000   0.00000   ) 
           (   0.00000   0.00000   )            (   0.00000   0.00000   ) 
           (   0.00000   0.00000   )            (   0.00000   0.00000   ) 
           (  -1.00000   0.00000   )            (  -0.00047   0.00000   ) 
           (   0.00047   0.00000   )            (  -1.00000   0.00000   ) 
           (   0.00000   0.00000   )            (   0.00000   0.00000   ) 

     Representation     3      1 modes -A''2  To be done
     Irreps are as follows:

                     mode #   5
                     (   0.00000   0.00000   ) 
                     (   0.00000   0.00000   ) 
                     (   0.00000   0.00000   ) 
                     (   0.00000   0.00000   ) 
                     (   0.00000   0.00000   ) 
                     (  -1.00000   0.00000   ) 

     Representation     4      1 modes -A''2  To be done
     Irreps are as follows:

                     mode #   6
                     (   0.00000   0.00000   ) 
                     (   0.00000   0.00000   ) 
                     (  -1.00000   0.00000   ) 
                     (   0.00000   0.00000   ) 
                     (   0.00000   0.00000   ) 
                     (   0.00000   0.00000   ) 



     Alpha used in Ewald sum =   2.8000
     PHONON       :     0.78s CPU         0.85s WALL


     Electric Fields Calculation

      iter #   1 total cpu time :     1.9 secs   av.it.:   6.4
      thresh= 1.000E-02 alpha_mix =  0.700 |ddv_scf|^2 =  9.935E-06

      iter #   2 total cpu time :     2.5 secs   av.it.:   9.3
      thresh= 3.152E-04 alpha_mix =  0.700 |ddv_scf|^2 =  7.208E-06

      iter #   3 total cpu time :     2.9 secs   av.it.:   6.6
      thresh= 2.685E-04 alpha_mix =  0.700 |ddv_scf|^2 =  3.215E-09

      iter #   4 total cpu time :     3.5 secs   av.it.:   9.7
      thresh= 5.670E-06 alpha_mix =  0.700 |ddv_scf|^2 =  4.025E-11

      iter #   5 total cpu time :     4.1 secs   av.it.:  10.6
      thresh= 6.344E-07 alpha_mix =  0.700 |ddv_scf|^2 =  2.154E-12

      iter #   6 total cpu time :     4.7 secs   av.it.:   9.7
      thresh= 1.468E-07 alpha_mix =  0.700 |ddv_scf|^2 =  1.115E-15

     End of electric fields calculation

          Dielectric constant in cartesian axis 

          (       1.828285656      -0.000000000      -0.000000000 )
          (      -0.000000000       1.828285254      -0.000000000 )
          (      -0.000000000      -0.000000000       1.159872350 )

          Effective charges (d Force / dE) in cartesian axis

           atom      1   B  
      Ex  (        2.69562        0.00000        0.00000 )
      Ey  (        0.00000        2.69562       -0.00000 )
      Ez  (        0.00000       -0.00000        0.28237 )
           atom      2   N  
      Ex  (       -2.69370        0.00000        0.00000 )
      Ey  (        0.00000       -2.69370       -0.00000 )
      Ez  (        0.00000        0.00000       -0.28175 )


     Representation #  1 modes #   1  2

     Self-consistent Calculation

      iter #   1 total cpu time :     5.2 secs   av.it.:   5.9
      thresh= 1.000E-02 alpha_mix =  0.700 |ddv_scf|^2 =  3.836E-09

      iter #   2 total cpu time :     5.7 secs   av.it.:  11.9
      thresh= 6.193E-06 alpha_mix =  0.700 |ddv_scf|^2 =  1.577E-10

      iter #   3 total cpu time :     6.2 secs   av.it.:  11.2
      thresh= 1.256E-06 alpha_mix =  0.700 |ddv_scf|^2 =  8.436E-12

      iter #   4 total cpu time :     6.6 secs   av.it.:  10.8
      thresh= 2.905E-07 alpha_mix =  0.700 |ddv_scf|^2 =  5.185E-14

     End of self-consistent calculation

     Convergence has been achieved 


     Representation #  2 modes #   3  4

     Self-consistent Calculation

      iter #   1 total cpu time :     7.0 secs   av.it.:   7.0
      thresh= 1.000E-02 alpha_mix =  0.700 |ddv_scf|^2 =  5.438E-08

      iter #   2 total cpu time :     7.5 secs   av.it.:  12.1
      thresh= 2.332E-05 alpha_mix =  0.700 |ddv_scf|^2 =  2.115E-10

      iter #   3 total cpu time :     8.0 secs   av.it.:  11.6
      thresh= 1.454E-06 alpha_mix =  0.700 |ddv_scf|^2 =  1.813E-11

      iter #   4 total cpu time :     8.6 secs   av.it.:  10.7
      thresh= 4.258E-07 alpha_mix =  0.700 |ddv_scf|^2 =  1.075E-14

     End of self-consistent calculation

     Convergence has been achieved 


     Representation #  3 mode #   5

     Self-consistent Calculation

      iter #   1 total cpu time :     9.0 secs   av.it.:   7.4
      thresh= 1.000E-02 alpha_mix =  0.700 |ddv_scf|^2 =  3.673E-05

      iter #   2 total cpu time :     9.3 secs   av.it.:   9.8
      thresh= 6.060E-04 alpha_mix =  0.700 |ddv_scf|^2 =  3.329E-05

      iter #   3 total cpu time :     9.5 secs   av.it.:   8.9
      thresh= 5.770E-04 alpha_mix =  0.700 |ddv_scf|^2 =  4.144E-08

      iter #   4 total cpu time :     9.8 secs   av.it.:   9.2
      thresh= 2.036E-05 alpha_mix =  0.700 |ddv_scf|^2 =  2.394E-11

      iter #   5 total cpu time :    10.1 secs   av.it.:   9.4
      thresh= 4.893E-07 alpha_mix =  0.700 |ddv_scf|^2 =  1.358E-12

      iter #   6 total cpu time :    10.5 secs   av.it.:   9.6
      thresh= 1.165E-07 alpha_mix =  0.700 |ddv_scf|^2 =  1.109E-15

     End of self-consistent calculation

     Convergence has been achieved 


     Representation #  4 mode #   6

     Self-consistent Calculation

      iter #   1 total cpu time :    10.8 secs   av.it.:   6.1
      thresh= 1.000E-02 alpha_mix =  0.700 |ddv_scf|^2 =  7.435E-06

      iter #   2 total cpu time :    11.1 secs   av.it.:   9.8
      thresh= 2.727E-04 alpha_mix =  0.700 |ddv_scf|^2 =  5.932E-06

      iter #   3 total cpu time :    11.3 secs   av.it.:   9.1
      thresh= 2.436E-04 alpha_mix =  0.700 |ddv_scf|^2 =  3.757E-10

      iter #   4 total cpu time :    11.6 secs   av.it.:   9.2
      thresh= 1.938E-06 alpha_mix =  0.700 |ddv_scf|^2 =  3.174E-11

      iter #   5 total cpu time :    11.9 secs   av.it.:   9.5
      thresh= 5.634E-07 alpha_mix =  0.700 |ddv_scf|^2 =  8.075E-13

     End of self-consistent calculation

     Convergence has been achieved 
 
     Number of q in the star =    1
     List of q in the star:
          1   0.000000000   0.000000000   0.000000000

          Dielectric constant in cartesian axis 

          (       1.828285656      -0.000000000      -0.000000000 )
          (      -0.000000000       1.828285254      -0.000000000 )
          (      -0.000000000      -0.000000000       1.159872350 )

          Effective charges (d Force / dE) in cartesian axis

           atom      1   B  
      Ex  (        2.69562        0.00000        0.00000 )
      Ey  (        0.00000        2.69562       -0.00000 )
      Ez  (        0.00000       -0.00000        0.28237 )
           atom      2   N  
      Ex  (       -2.69370        0.00000        0.00000 )
      Ey  (        0.00000       -2.69370       -0.00000 )
      Ez  (        0.00000        0.00000       -0.28175 )

     Diagonalizing the dynamical matrix

     q = (    0.000000000   0.000000000   0.000000000 ) 

 **************************************************************************
     freq (    1) =       2.358443 [THz] =      78.669188 [cm-1]
     freq (    2) =       2.774036 [THz] =      92.531873 [cm-1]
     freq (    3) =       2.774036 [THz] =      92.531896 [cm-1]
     freq (    4) =      24.312112 [THz] =     810.964754 [cm-1]
     freq (    5) =      40.430273 [THz] =    1348.608748 [cm-1]
     freq (    6) =      40.430283 [THz] =    1348.609076 [cm-1]
 **************************************************************************

     Mode symmetry, D_3h (-62m) point group:

     freq (  1 -  1) =         78.7  [cm-1]   --> A''2            I  
     freq (  2 -  3) =         92.5  [cm-1]   --> E'              I+R
     freq (  4 -  4) =        811.0  [cm-1]   --> A''2            I  
     freq (  5 -  6) =       1348.6  [cm-1]   --> E'              I+R
 
     PHONON       :    10.43s CPU        11.95s WALL

     INITIALIZATION: 
     phq_setup    :      0.03s CPU      0.04s WALL (       1 calls)
     phq_init     :      0.12s CPU      0.13s WALL (       1 calls)
 
     phq_init     :      0.12s CPU      0.13s WALL (       1 calls)
     init_vloc    :      0.04s CPU      0.04s WALL (       1 calls)
     init_us_1    :      0.00s CPU      0.00s WALL (       1 calls)
 
     DIELECTRIC CONSTANT AND EFFECTIVE CHARGES:
     solve_e      :      3.41s CPU      3.86s WALL (       1 calls)
     dielec       :      0.00s CPU      0.01s WALL (       1 calls)
     zstar_eu     :      0.09s CPU      0.15s WALL (       1 calls)
 
     DYNAMICAL MATRIX:
     dynmat0      :      0.01s CPU      0.01s WALL (       1 calls)
     phqscf       :      6.15s CPU      7.05s WALL (       1 calls)
     dynmatrix    :      0.00s CPU      0.00s WALL (       1 calls)
 
     phqscf       :      6.15s CPU      7.05s WALL (       1 calls)
     solve_linter :      6.11s CPU      6.88s WALL (       4 calls)
     drhodv       :      0.03s CPU      0.03s WALL (       4 calls)
 
     dynmat0      :      0.01s CPU      0.01s WALL (       1 calls)
     dynmat_us    :      0.00s CPU      0.01s WALL (       1 calls)
     d2ionq       :      0.00s CPU      0.00s WALL (       1 calls)
 
     dynmat_us    :      0.00s CPU      0.01s WALL (       1 calls)
 
     phqscf       :      6.15s CPU      7.05s WALL (       1 calls)
     solve_linter :      6.11s CPU      6.88s WALL (       4 calls)
 
     solve_linter :      6.11s CPU      6.88s WALL (       4 calls)
     dvqpsi_us    :      0.16s CPU      0.16s WALL (      60 calls)
     ortho        :      0.02s CPU      0.02s WALL (     240 calls)
     cgsolve      :      4.70s CPU      4.78s WALL (     240 calls)
     incdrhoscf   :      0.40s CPU      0.41s WALL (     225 calls)
     vpsifft      :      0.18s CPU      0.18s WALL (     105 calls)
     dv_of_drho   :      0.27s CPU      0.28s WALL (      45 calls)
     mix_pot      :      0.05s CPU      0.76s WALL (      25 calls)
     psymdvscf    :      2.64s CPU      2.66s WALL (      19 calls)
 
     dvqpsi_us    :      0.16s CPU      0.16s WALL (      60 calls)
     dvqpsi_us_on :      0.01s CPU      0.01s WALL (      60 calls)
 
     cgsolve      :      4.70s CPU      4.78s WALL (     240 calls)
     ch_psi       :      4.55s CPU      4.65s WALL (    3199 calls)
 
     ch_psi       :      4.55s CPU      4.65s WALL (    3199 calls)
     h_psi        :      4.22s CPU      4.29s WALL (    3199 calls)
     last         :      0.30s CPU      0.31s WALL (    3199 calls)
 
     h_psi        :      4.22s CPU      4.29s WALL (    3199 calls)
     add_vuspsi   :      0.12s CPU      0.13s WALL (    3199 calls)
 
     incdrhoscf   :      0.40s CPU      0.41s WALL (     225 calls)
 
 
      General routines
     calbec       :      0.33s CPU      0.32s WALL (    6583 calls)
     fft          :      0.17s CPU      0.17s WALL (     509 calls)
     ffts         :      0.03s CPU      0.03s WALL (      84 calls)
     fftw         :      4.20s CPU      4.14s WALL (   23634 calls)
     davcio       :      0.03s CPU      0.08s WALL (    1089 calls)
     write_rec    :      0.04s CPU      0.47s WALL (      29 calls)
 
 
     PHONON       :    10.43s CPU        11.95s WALL

 
   This run was terminated on:  16:37:38   9Mar2020            

=------------------------------------------------------------------------------=
   JOB DONE.
=------------------------------------------------------------------------------=
