
     Program PWSCF v.6.1 (svn rev. 13369) starts on 10Feb2021 at 23: 3:37 

     This program is part of the open-source Quantum ESPRESSO suite
     for quantum simulation of materials; please cite
         "P. Giannozzi et al., J. Phys.:Condens. Matter 21 395502 (2009);
          URL http://www.quantum-espresso.org", 
     in publications or presentations arising from this work. More details at
     http://www.quantum-espresso.org/quote

     Parallel version (MPI), running on   160 processors
     K-points division:     npool     =       2
     R & G space division:  proc/nbgrp/npool/nimage =      80
     Reading input from scf.in
Warning: card &CELL ignored
Warning: card / ignored
Warning: card &IONS ignored
Warning: card / ignored

     Current dimensions of program PWSCF are:
     Max number of different atomic species (ntypx) = 10
     Max number of k-points (npk) = 120000
     Max angular momentum in pseudopotentials (lmaxx) =  3

     Subspace diagonalization in iterative solution of the eigenvalue problem:
     a serial algorithm will be used

 
     Parallelization info
     --------------------
     sticks:   dense  smooth     PW     G-vecs:    dense   smooth      PW
     Min         153     153     38                14461    14461    1806
     Max         154     154     39                14464    14464    1813
     Sum       12259   12259   3067              1156971  1156971  144701
 


     bravais-lattice index     =            0
     lattice parameter (alat)  =      28.4287  a.u.
     unit-cell volume          =   20997.3881 (a.u.)^3
     number of atoms/cell      =           72
     number of atomic types    =            3
     number of electrons       =       288.00 (up: 144.00, down: 144.00)
     number of Kohn-Sham states=          168
     kinetic-energy cutoff     =      55.0000  Ry
     charge density cutoff     =     220.0000  Ry
     convergence threshold     =      1.0E-08
     mixing beta               =       0.7000
     number of iterations used =            8  plain     mixing
     Exchange-correlation      = PBE ( 1  4  3  4 0 0)

     celldm(1)=  28.428666  celldm(2)=   0.000000  celldm(3)=   0.000000
     celldm(4)=   0.000000  celldm(5)=   0.000000  celldm(6)=   0.000000

     crystal axes: (cart. coord. in units of alat)
               a(1) = (   1.000000   0.000000   0.000000 )  
               a(2) = (  -0.499999   0.866026   0.000000 )  
               a(3) = (   0.000000   0.000000   1.055273 )  

     reciprocal axes: (cart. coord. in units 2 pi/alat)
               b(1) = (  1.000000  0.577349  0.000000 )  
               b(2) = (  0.000000  1.154700  0.000000 )  
               b(3) = (  0.000000  0.000000  0.947622 )  


     PseudoPot. # 1 for B  read from file:
     ~/pseudo-ONCV-proj/B_ONCV_PBE-1.0.upf
     MD5 check sum: Not computed, couldn't open file
     Pseudo is Norm-conserving, Zval =  3.0
     Generated using ONCVPSP code by D. R. Hamann
     Using radial grid of 1534 points,  4 beta functions with: 
                l(1) =   0
                l(2) =   0
                l(3) =   1
                l(4) =   1

     PseudoPot. # 2 for N  read from file:
     ~/pseudo-ONCV-proj/N_ONCV_PBE-1.0.upf
     MD5 check sum: Not computed, couldn't open file
     Pseudo is Norm-conserving, Zval =  5.0
     Generated using ONCVPSP code by D. R. Hamann
     Using radial grid of 1058 points,  4 beta functions with: 
                l(1) =   0
                l(2) =   0
                l(3) =   1
                l(4) =   1

     PseudoPot. # 3 for C  read from file:
     ~/pseudo-ONCV-proj/C_ONCV_PBE-1.0.upf
     MD5 check sum: Not computed, couldn't open file
     Pseudo is Norm-conserving, Zval =  4.0
     Generated using ONCVPSP code by D. R. Hamann
     Using radial grid of 1248 points,  4 beta functions with: 
                l(1) =   0
                l(2) =   0
                l(3) =   1
                l(4) =   1

     atomic species   valence    mass     pseudopotential
        B              3.00    10.81100     B ( 1.00)
        N              5.00    14.00674     N ( 1.00)
        C              4.00    12.01070     C ( 1.00)

     Starting magnetic structure 
     atomic species   magnetization
        B            1.000
        N            0.000
        C            0.000

      2 Sym. Ops. (no inversion) found


                                    s                        frac. trans.

      isym =  1     identity                                     

 cryst.   s( 1) = (     1          0          0      )
                  (     0          1          0      )
                  (     0          0          1      )

 cart.    s( 1) = (  1.0000000 -0.0000000  0.0000000 )
                  (  0.0000000  1.0000000  0.0000000 )
                  (  0.0000000  0.0000000  1.0000000 )


      isym =  2     inv. 180 deg rotation - cart. axis [0,0,1]   

 cryst.   s( 2) = (     1          0          0      )
                  (     0          1          0      )
                  (     0          0         -1      )

 cart.    s( 2) = (  1.0000000 -0.0000000  0.0000000 )
                  (  0.0000000  1.0000000  0.0000000 )
                  (  0.0000000  0.0000000 -1.0000000 )


   Cartesian axes

     site n.     atom                  positions (alat units)
         1           B   tau(   1) = (  -0.0001000   0.0960096   0.5276366  )
         2           B   tau(   2) = (  -0.0833723   0.2404529   0.5276366  )
         3           B   tau(   3) = (  -0.1667808   0.3849211   0.5276366  )
         4           B   tau(   4) = (  -0.2502359   0.5292589   0.5276366  )
         5           B   tau(   5) = (  -0.3333000   0.6736002   0.5276366  )
         6           B   tau(   6) = (  -0.4166281   0.8179291   0.5276366  )
         7           B   tau(   7) = (   0.1666658   0.0959776   0.5276366  )
         8           B   tau(   8) = (   0.0831347   0.2401303   0.5276366  )
         9           B   tau(   9) = (   0.0001433   0.3849827   0.5276366  )
        10           B   tau(  10) = (  -0.0838066   0.5292818   0.5276366  )
        11           B   tau(  11) = (  -0.1668805   0.6736984   0.5276366  )
        12           B   tau(  12) = (  -0.2500077   0.8179083   0.5276366  )
        13           B   tau(  13) = (   0.3334473   0.0959757   0.5276366  )
        14           B   tau(  14) = (   0.2504359   0.2395768   0.5276366  )
        15           B   tau(  15) = (   0.1673578   0.3829730   0.5276366  )
        16           B   tau(  16) = (   0.0820102   0.5307997   0.5276366  )
        17           B   tau(  17) = (  -0.0006351   0.6744458   0.5276366  )
        18           B   tau(  18) = (  -0.0834913   0.8181364   0.5276366  )
        19           B   tau(  19) = (   0.5000136   0.0962327   0.5276366  )
        20           B   tau(  20) = (   0.4164312   0.2407525   0.5276366  )
        21           B   tau(  21) = (   0.3323184   0.3851704   0.5276366  )
        22           B   tau(  22) = (   0.1663937   0.6725612   0.5276366  )
        23           B   tau(  23) = (   0.0833809   0.8176141   0.5276366  )
        24           B   tau(  24) = (   0.6666447   0.0961410   0.5276366  )
        25           B   tau(  25) = (   0.5832499   0.2405855   0.5276366  )
        26           B   tau(  26) = (   0.4999271   0.3850530   0.5276366  )
        27           B   tau(  27) = (   0.4170715   0.5298611   0.5276366  )
        28           B   tau(  28) = (   0.3340759   0.6736141   0.5276366  )
        29           B   tau(  29) = (   0.2500965   0.8177734   0.5276366  )
        30           B   tau(  30) = (   0.8332728   0.0961472   0.5276366  )
        31           B   tau(  31) = (   0.7499552   0.2405366   0.5276366  )
        32           B   tau(  32) = (   0.6665695   0.3848866   0.5276366  )
        33           B   tau(  33) = (   0.5832118   0.5292647   0.5276366  )
        34           B   tau(  34) = (   0.5005038   0.6738660   0.5276366  )
        35           B   tau(  35) = (   0.4166297   0.8177941   0.5276366  )
        36           N   tau(  36) = (   0.0832222   0.0479518   0.5276366  )
        37           N   tau(  37) = (  -0.0002699   0.1920256   0.5276366  )
        38           N   tau(  38) = (  -0.0833424   0.3367822   0.5276366  )
        39           N   tau(  39) = (  -0.1671687   0.4811036   0.5276366  )
        40           N   tau(  40) = (  -0.2501939   0.6254470   0.5276366  )
        41           N   tau(  41) = (  -0.3334070   0.7697576   0.5276366  )
        42           N   tau(  42) = (   0.2500367   0.0479605   0.5276366  )
        43           N   tau(  43) = (   0.1666641   0.1919057   0.5276366  )
        44           N   tau(  44) = (   0.0832264   0.3359685   0.5276366  )
        45           N   tau(  45) = (  -0.0007625   0.4814420   0.5276366  )
        46           N   tau(  46) = (  -0.0838054   0.6257327   0.5276366  )
        47           N   tau(  47) = (  -0.1667789   0.7699083   0.5276366  )
        48           N   tau(  48) = (   0.4168020   0.0481905   0.5276366  )
        49           N   tau(  49) = (   0.3337972   0.1918581   0.5276366  )
        50           N   tau(  50) = (   0.2506956   0.3348848   0.5276366  )
        51           N   tau(  51) = (   0.0820338   0.6270165   0.5276366  )
        52           N   tau(  52) = (  -0.0002798   0.7704981   0.5276366  )
        53           N   tau(  53) = (   0.5834869   0.0479130   0.5276366  )
        54           N   tau(  54) = (   0.4999044   0.1926826   0.5276366  )
        55           N   tau(  55) = (   0.4160694   0.3377172   0.5276366  )
        56           N   tau(  56) = (   0.3324254   0.4834508   0.5276366  )
        57           N   tau(  57) = (   0.2515604   0.6235135   0.5276366  )
        58           N   tau(  58) = (   0.1671737   0.7688183   0.5276366  )
        59           N   tau(  59) = (   0.7499248   0.0478691   0.5276366  )
        60           N   tau(  60) = (   0.6665712   0.1923948   0.5276366  )
        61           N   tau(  61) = (   0.5830855   0.3368441   0.5276366  )
        62           N   tau(  62) = (   0.4996990   0.4811830   0.5276366  )
        63           N   tau(  63) = (   0.4173101   0.6258341   0.5276366  )
        64           N   tau(  64) = (   0.3332334   0.7695107   0.5276366  )
        65           N   tau(  65) = (   0.9164661   0.0478695   0.5276366  )
        66           N   tau(  66) = (   0.8331900   0.1923553   0.5276366  )
        67           N   tau(  67) = (   0.7498466   0.3367106   0.5276366  )
        68           N   tau(  68) = (   0.6663566   0.4810730   0.5276366  )
        69           N   tau(  69) = (   0.5834148   0.6254650   0.5276366  )
        70           N   tau(  70) = (   0.5000430   0.7698696   0.5276366  )
        71           C   tau(  71) = (   0.2524822   0.5306707   0.5276366  )
        72           C   tau(  72) = (   0.1696086   0.4828235   0.5276366  )

   Crystallographic axes

     site n.     atom                  positions (cryst. coord.)
         1           B   tau(   1) = (  0.0553311  0.1108623  0.5000000  )
         2           B   tau(   2) = (  0.0554529  0.2776510  0.5000000  )
         3           B   tau(   3) = (  0.0554529  0.4444683  0.5000000  )
         4           B   tau(   4) = (  0.0553311  0.6111351  0.5000000  )
         5           B   tau(   5) = (  0.0556022  0.7778060  0.5000000  )
         6           B   tau(   6) = (  0.0556022  0.9444625  0.5000000  )
         7           B   tau(   7) = (  0.2220783  0.1108253  0.5000000  )
         8           B   tau(   8) = (  0.2217736  0.2772784  0.5000000  )
         9           B   tau(   9) = (  0.2224126  0.4445395  0.5000000  )
        10           B   tau(  10) = (  0.2217736  0.6111615  0.5000000  )
        11           B   tau(  11) = (  0.2220783  0.7779193  0.5000000  )
        12           B   tau(  12) = (  0.2222106  0.9444385  0.5000000  )
        13           B   tau(  13) = (  0.3888588  0.1108232  0.5000000  )
        14           B   tau(  14) = (  0.3887553  0.2766393  0.5000000  )
        15           B   tau(  15) = (  0.3884668  0.4422188  0.5000000  )
        16           B   tau(  16) = (  0.3884668  0.6129143  0.5000000  )
        17           B   tau(  17) = (  0.3887553  0.7787823  0.5000000  )
        18           B   tau(  18) = (  0.3888588  0.9447019  0.5000000  )
        19           B   tau(  19) = (  0.5555734  0.1111199  0.5000000  )
        20           B   tau(  20) = (  0.5554294  0.2779969  0.5000000  )
        21           B   tau(  21) = (  0.5546961  0.4447562  0.5000000  )
        22           B   tau(  22) = (  0.5546961  0.7766062  0.5000000  )
        23           B   tau(  23) = (  0.5554294  0.9440988  0.5000000  )
        24           B   tau(  24) = (  0.7221516  0.1110139  0.5000000  )
        25           B   tau(  25) = (  0.7221516  0.2778040  0.5000000  )
        26           B   tau(  26) = (  0.7222369  0.4446206  0.5000000  )
        27           B   tau(  27) = (  0.7229862  0.6118304  0.5000000  )
        28           B   tau(  28) = (  0.7229861  0.7778221  0.5000000  )
        29           B   tau(  29) = (  0.7222369  0.9442827  0.5000000  )
        30           B   tau(  30) = (  0.8887832  0.1110212  0.5000000  )
        31           B   tau(  31) = (  0.8888287  0.2777475  0.5000000  )
        32           B   tau(  32) = (  0.8887832  0.4444284  0.5000000  )
        33           B   tau(  33) = (  0.8887821  0.6111418  0.5000000  )
        34           B   tau(  34) = (  0.8895595  0.7781129  0.5000000  )
        35           B   tau(  35) = (  0.8887821  0.9443067  0.5000000  )
        36           N   tau(  36) = (  0.1109071  0.0553699  0.5000000  )
        37           N   tau(  37) = (  0.1105958  0.2217320  0.5000000  )
        38           N   tau(  38) = (  0.1110983  0.3888823  0.5000000  )
        39           N   tau(  39) = (  0.1105959  0.5555302  0.5000000  )
        40           N   tau(  40) = (  0.1109071  0.7222035  0.5000000  )
        41           N   tau(  41) = (  0.1110115  0.8888389  0.5000000  )
        42           N   tau(  42) = (  0.2777267  0.0553800  0.5000000  )
        43           N   tau(  43) = (  0.2774605  0.2215934  0.5000000  )
        44           N   tau(  44) = (  0.2771974  0.3879428  0.5000000  )
        45           N   tau(  45) = (  0.2771974  0.5559209  0.5000000  )
        46           N   tau(  46) = (  0.2774606  0.7225334  0.5000000  )
        47           N   tau(  47) = (  0.2777267  0.8890129  0.5000000  )
        48           N   tau(  48) = (  0.4446248  0.0556455  0.5000000  )
        49           N   tau(  49) = (  0.4445663  0.2215385  0.5000000  )
        50           N   tau(  50) = (  0.4440409  0.3866914  0.5000000  )
        51           N   tau(  51) = (  0.4440409  0.7240158  0.5000000  )
        52           N   tau(  52) = (  0.4445663  0.8896940  0.5000000  )
        53           N   tau(  53) = (  0.6111495  0.0553252  0.5000000  )
        54           N   tau(  54) = (  0.6111495  0.2224906  0.5000000  )
        55           N   tau(  55) = (  0.6110500  0.3899619  0.5000000  )
        56           N   tau(  56) = (  0.6115452  0.5582405  0.5000000  )
        57           N   tau(  57) = (  0.6115451  0.7199709  0.5000000  )
        58           N   tau(  58) = (  0.6110500  0.8877543  0.5000000  )
        59           N   tau(  59) = (  0.7775620  0.0552745  0.5000000  )
        60           N   tau(  60) = (  0.7776501  0.2221582  0.5000000  )
        61           N   tau(  61) = (  0.7775620  0.3889538  0.5000000  )
        62           N   tau(  62) = (  0.7775094  0.5556219  0.5000000  )
        63           N   tau(  63) = (  0.7786346  0.7226504  0.5000000  )
        64           N   tau(  64) = (  0.7775093  0.8885538  0.5000000  )
        65           N   tau(  65) = (  0.9441035  0.0552749  0.5000000  )
        66           N   tau(  66) = (  0.9442461  0.2221126  0.5000000  )
        67           N   tau(  67) = (  0.9442461  0.3887997  0.5000000  )
        68           N   tau(  68) = (  0.9441035  0.5554949  0.5000000  )
        69           N   tau(  69) = (  0.9445262  0.7222242  0.5000000  )
        70           N   tau(  70) = (  0.9445262  0.8889682  0.5000000  )
        71           C   tau(  71) = (  0.5588642  0.6127653  0.5000000  )
        72           C   tau(  72) = (  0.4483661  0.5575162  0.5000000  )

     number of k points=     1
                       cart. coord. in units 2pi/alat
        k(    1) = (   0.0000000   0.0000000   0.0000000), wk =   1.0000000

                       cryst. coord.
        k(    1) = (   0.0000000   0.0000000   0.0000000), wk =   1.0000000

     Dense  grid:  1156971 G-vectors     FFT dimensions: ( 135, 135, 144)

     Occupations read from input 

      Spin-up

        1.0000   1.0000   1.0000   1.0000   1.0000   1.0000   1.0000   1.0000
        1.0000   1.0000   1.0000   1.0000   1.0000   1.0000   1.0000   1.0000
        1.0000   1.0000   1.0000   1.0000   1.0000   1.0000   1.0000   1.0000
        1.0000   1.0000   1.0000   1.0000   1.0000   1.0000   1.0000   1.0000
        1.0000   1.0000   1.0000   1.0000   1.0000   1.0000   1.0000   1.0000
        1.0000   1.0000   1.0000   1.0000   1.0000   1.0000   1.0000   1.0000
        1.0000   1.0000   1.0000   1.0000   1.0000   1.0000   1.0000   1.0000
        1.0000   1.0000   1.0000   1.0000   1.0000   1.0000   1.0000   1.0000
        1.0000   1.0000   1.0000   1.0000   1.0000   1.0000   1.0000   1.0000
        1.0000   1.0000   1.0000   1.0000   1.0000   1.0000   1.0000   1.0000
        1.0000   1.0000   1.0000   1.0000   1.0000   1.0000   1.0000   1.0000
        1.0000   1.0000   1.0000   1.0000   1.0000   1.0000   1.0000   1.0000
        1.0000   1.0000   1.0000   1.0000   1.0000   1.0000   1.0000   1.0000
        1.0000   1.0000   1.0000   1.0000   1.0000   1.0000   1.0000   1.0000
        1.0000   1.0000   1.0000   1.0000   1.0000   1.0000   1.0000   1.0000
        1.0000   1.0000   1.0000   1.0000   1.0000   1.0000   1.0000   1.0000
        1.0000   1.0000   1.0000   1.0000   1.0000   1.0000   1.0000   1.0000
        1.0000   1.0000   1.0000   1.0000   1.0000   1.0000   1.0000   0.0000
        1.0000   0.0000   0.0000   0.0000   0.0000   0.0000   0.0000   0.0000
        0.0000   0.0000   0.0000   0.0000   0.0000   0.0000   0.0000   0.0000
        0.0000   0.0000   0.0000   0.0000   0.0000   0.0000   0.0000   0.0000

      Spin-down

        1.0000   1.0000   1.0000   1.0000   1.0000   1.0000   1.0000   1.0000
        1.0000   1.0000   1.0000   1.0000   1.0000   1.0000   1.0000   1.0000
        1.0000   1.0000   1.0000   1.0000   1.0000   1.0000   1.0000   1.0000
        1.0000   1.0000   1.0000   1.0000   1.0000   1.0000   1.0000   1.0000
        1.0000   1.0000   1.0000   1.0000   1.0000   1.0000   1.0000   1.0000
        1.0000   1.0000   1.0000   1.0000   1.0000   1.0000   1.0000   1.0000
        1.0000   1.0000   1.0000   1.0000   1.0000   1.0000   1.0000   1.0000
        1.0000   1.0000   1.0000   1.0000   1.0000   1.0000   1.0000   1.0000
        1.0000   1.0000   1.0000   1.0000   1.0000   1.0000   1.0000   1.0000
        1.0000   1.0000   1.0000   1.0000   1.0000   1.0000   1.0000   1.0000
        1.0000   1.0000   1.0000   1.0000   1.0000   1.0000   1.0000   1.0000
        1.0000   1.0000   1.0000   1.0000   1.0000   1.0000   1.0000   1.0000
        1.0000   1.0000   1.0000   1.0000   1.0000   1.0000   1.0000   1.0000
        1.0000   1.0000   1.0000   1.0000   1.0000   1.0000   1.0000   1.0000
        1.0000   1.0000   1.0000   1.0000   1.0000   1.0000   1.0000   1.0000
        1.0000   1.0000   1.0000   1.0000   1.0000   1.0000   1.0000   1.0000
        1.0000   1.0000   1.0000   1.0000   1.0000   1.0000   1.0000   1.0000
        1.0000   1.0000   1.0000   1.0000   1.0000   1.0000   1.0000   1.0000
        0.0000   0.0000   0.0000   0.0000   0.0000   0.0000   0.0000   0.0000
        0.0000   0.0000   0.0000   0.0000   0.0000   0.0000   0.0000   0.0000
        0.0000   0.0000   0.0000   0.0000   0.0000   0.0000   0.0000   0.0000

     Estimated max dynamical RAM per process >      68.84MB

     Estimated total allocated dynamical RAM >   11014.86MB
     Generating pointlists ...
     new r_m :   0.0393 (alat units)  1.1177 (a.u.) for type    1
     new r_m :   0.0383 (alat units)  1.0888 (a.u.) for type    2
     new r_m :   0.0383 (alat units)  1.0888 (a.u.) for type    3

     Initial potential from superposition of free atoms
     Check: negative starting charge=(component1):   -0.001386
     Check: negative starting charge=(component2):   -0.001913

     starting charge  287.99093, renormalised to  288.00000

     negative rho (up, down):  1.386E-03 1.913E-03
     Starting wfc are  288 randomized atomic wfcs

     total cpu time spent up to now is        2.9 secs

     per-process dynamical memory:    91.4 Mb

     Self-consistent Calculation

     iteration #  1     ecut=    55.00 Ry     beta=0.70
     Davidson diagonalization with overlap
     ethr =  1.00E-02,  avg # of iterations =  2.5

     negative rho (up, down):  1.552E-04 3.038E-04

     total cpu time spent up to now is        4.4 secs

     total energy              =    -916.49752157 Ry
     Harris-Foulkes estimate   =    -922.43617276 Ry
     estimated scf accuracy    <      16.98681943 Ry

     total magnetization       =     0.00 Bohr mag/cell
     absolute magnetization    =    19.40 Bohr mag/cell

     iteration #  2     ecut=    55.00 Ry     beta=0.70
     Davidson diagonalization with overlap
     ethr =  5.90E-03,  avg # of iterations =  3.0

     negative rho (up, down):  6.466E-05 1.194E-04

     total cpu time spent up to now is        5.8 secs

     total energy              =    -921.14745992 Ry
     Harris-Foulkes estimate   =    -925.75682089 Ry
     estimated scf accuracy    <      10.58313170 Ry

     total magnetization       =     0.00 Bohr mag/cell
     absolute magnetization    =    14.94 Bohr mag/cell

     iteration #  3     ecut=    55.00 Ry     beta=0.70
     Davidson diagonalization with overlap
     ethr =  3.67E-03,  avg # of iterations =  4.0

     negative rho (up, down):  2.006E-05 3.925E-05

     total cpu time spent up to now is        7.3 secs

     total energy              =    -923.04428381 Ry
     Harris-Foulkes estimate   =    -923.42908350 Ry
     estimated scf accuracy    <       1.09114296 Ry

     total magnetization       =    -0.00 Bohr mag/cell
     absolute magnetization    =    10.09 Bohr mag/cell

     iteration #  4     ecut=    55.00 Ry     beta=0.70
     Davidson diagonalization with overlap
     ethr =  3.79E-04,  avg # of iterations = 13.5

     negative rho (up, down):  5.610E-09 1.146E-08

     total cpu time spent up to now is       10.2 secs

     total energy              =    -923.49584341 Ry
     Harris-Foulkes estimate   =    -923.73786245 Ry
     estimated scf accuracy    <       1.14128600 Ry

     total magnetization       =    -0.00 Bohr mag/cell
     absolute magnetization    =     8.09 Bohr mag/cell

     iteration #  5     ecut=    55.00 Ry     beta=0.70
     Davidson diagonalization with overlap
     ethr =  3.79E-04,  avg # of iterations =  8.0

     negative rho (up, down):  7.598E-09 1.338E-08

     total cpu time spent up to now is       11.7 secs

     total energy              =    -923.65470006 Ry
     Harris-Foulkes estimate   =    -923.65611831 Ry
     estimated scf accuracy    <       0.03946932 Ry

     total magnetization       =    -0.00 Bohr mag/cell
     absolute magnetization    =     5.58 Bohr mag/cell

     iteration #  6     ecut=    55.00 Ry     beta=0.70
     Davidson diagonalization with overlap
     ethr =  1.37E-05,  avg # of iterations = 12.0

     total cpu time spent up to now is       14.9 secs

     total energy              =    -923.68173415 Ry
     Harris-Foulkes estimate   =    -923.66815000 Ry
     estimated scf accuracy    <       0.00884316 Ry

     total magnetization       =    -0.00 Bohr mag/cell
     absolute magnetization    =     4.53 Bohr mag/cell

     iteration #  7     ecut=    55.00 Ry     beta=0.70
     Davidson diagonalization with overlap
     ethr =  3.07E-06,  avg # of iterations =  4.5

     total cpu time spent up to now is       17.0 secs

     total energy              =    -923.69167121 Ry
     Harris-Foulkes estimate   =    -923.68878457 Ry
     estimated scf accuracy    <       0.00367771 Ry

     total magnetization       =     0.00 Bohr mag/cell
     absolute magnetization    =     3.16 Bohr mag/cell

     iteration #  8     ecut=    55.00 Ry     beta=0.70
     Davidson diagonalization with overlap
     ethr =  1.28E-06,  avg # of iterations =  3.0

     total cpu time spent up to now is       18.5 secs

     total energy              =    -923.69414824 Ry
     Harris-Foulkes estimate   =    -923.69344533 Ry
     estimated scf accuracy    <       0.00102820 Ry

     total magnetization       =     0.00 Bohr mag/cell
     absolute magnetization    =     2.47 Bohr mag/cell

     iteration #  9     ecut=    55.00 Ry     beta=0.70
     Davidson diagonalization with overlap
     ethr =  3.57E-07,  avg # of iterations =  3.5

     total cpu time spent up to now is       20.2 secs

     total energy              =    -923.69493070 Ry
     Harris-Foulkes estimate   =    -923.69487622 Ry
     estimated scf accuracy    <       0.00024366 Ry

     total magnetization       =    -0.00 Bohr mag/cell
     absolute magnetization    =     2.00 Bohr mag/cell

     iteration # 10     ecut=    55.00 Ry     beta=0.70
     Davidson diagonalization with overlap
     ethr =  8.46E-08,  avg # of iterations =  3.5

     total cpu time spent up to now is       21.7 secs

     total energy              =    -923.69507882 Ry
     Harris-Foulkes estimate   =    -923.69509027 Ry
     estimated scf accuracy    <       0.00005540 Ry

     total magnetization       =    -0.00 Bohr mag/cell
     absolute magnetization    =     1.82 Bohr mag/cell

     iteration # 11     ecut=    55.00 Ry     beta=0.70
     Davidson diagonalization with overlap
     ethr =  1.92E-08,  avg # of iterations =  3.0

     total cpu time spent up to now is       23.5 secs

     total energy              =    -923.69510204 Ry
     Harris-Foulkes estimate   =    -923.69510248 Ry
     estimated scf accuracy    <       0.00000257 Ry

     total magnetization       =     0.00 Bohr mag/cell
     absolute magnetization    =     1.76 Bohr mag/cell

     iteration # 12     ecut=    55.00 Ry     beta=0.70
     Davidson diagonalization with overlap
     ethr =  8.93E-10,  avg # of iterations =  3.5

     total cpu time spent up to now is       25.0 secs

     total energy              =    -923.69510367 Ry
     Harris-Foulkes estimate   =    -923.69510375 Ry
     estimated scf accuracy    <       0.00000084 Ry

     total magnetization       =     0.00 Bohr mag/cell
     absolute magnetization    =     1.75 Bohr mag/cell

     iteration # 13     ecut=    55.00 Ry     beta=0.70
     Davidson diagonalization with overlap
     ethr =  2.90E-10,  avg # of iterations =  3.5

     total cpu time spent up to now is       26.3 secs

     total energy              =    -923.69510400 Ry
     Harris-Foulkes estimate   =    -923.69510392 Ry
     estimated scf accuracy    <       0.00000008 Ry

     total magnetization       =    -0.00 Bohr mag/cell
     absolute magnetization    =     1.75 Bohr mag/cell

     iteration # 14     ecut=    55.00 Ry     beta=0.70
     Davidson diagonalization with overlap
     ethr =  2.81E-11,  avg # of iterations =  4.0

     total cpu time spent up to now is       28.0 secs

     total energy              =    -923.69510404 Ry
     Harris-Foulkes estimate   =    -923.69510405 Ry
     estimated scf accuracy    <       0.00000005 Ry

     total magnetization       =    -0.00 Bohr mag/cell
     absolute magnetization    =     1.75 Bohr mag/cell

     iteration # 15     ecut=    55.00 Ry     beta=0.70
     Davidson diagonalization with overlap
     ethr =  1.81E-11,  avg # of iterations =  3.5
 
     Magnetic moment per site:
     atom:    1    charge:    0.8593    magn:    0.0004    constr:    0.0000
     atom:    2    charge:    0.8578    magn:    0.0018    constr:    0.0000
     atom:    3    charge:    0.8578    magn:    0.0018    constr:    0.0000
     atom:    4    charge:    0.8593    magn:    0.0004    constr:    0.0000
     atom:    5    charge:    0.8606    magn:    0.0013    constr:    0.0000
     atom:    6    charge:    0.8606    magn:    0.0013    constr:    0.0000
     atom:    7    charge:    0.8625    magn:    0.0017    constr:    0.0000
     atom:    8    charge:    0.8600    magn:    0.0016    constr:    0.0000
     atom:    9    charge:    0.8565    magn:    0.0060    constr:    0.0000
     atom:   10    charge:    0.8600    magn:    0.0016    constr:    0.0000
     atom:   11    charge:    0.8625    magn:    0.0017    constr:    0.0000
     atom:   12    charge:    0.8613    magn:    0.0052    constr:    0.0000
     atom:   13    charge:    0.8619    magn:    0.0016    constr:    0.0000
     atom:   14    charge:    0.8669    magn:    0.0066    constr:    0.0000
     atom:   15    charge:    0.8709    magn:    0.0200    constr:    0.0000
     atom:   16    charge:    0.8709    magn:    0.0200    constr:    0.0000
     atom:   17    charge:    0.8669    magn:    0.0066    constr:    0.0000
     atom:   18    charge:    0.8619    magn:    0.0016    constr:    0.0000
     atom:   19    charge:    0.8581    magn:    0.0010    constr:    0.0000
     atom:   20    charge:    0.8540    magn:    0.0001    constr:    0.0000
     atom:   21    charge:    0.8494    magn:    0.0048    constr:    0.0000
     atom:   22    charge:    0.8494    magn:    0.0048    constr:    0.0000
     atom:   23    charge:    0.8540    magn:    0.0001    constr:    0.0000
     atom:   24    charge:    0.8589    magn:    0.0016    constr:    0.0000
     atom:   25    charge:    0.8589    magn:    0.0016    constr:    0.0000
     atom:   26    charge:    0.8598    magn:    0.0032    constr:    0.0000
     atom:   27    charge:    0.8647    magn:    0.0126    constr:    0.0000
     atom:   28    charge:    0.8647    magn:    0.0126    constr:    0.0000
     atom:   29    charge:    0.8598    magn:    0.0032    constr:    0.0000
     atom:   30    charge:    0.8600    magn:    0.0007    constr:    0.0000
     atom:   31    charge:    0.8598    magn:    0.0049    constr:    0.0000
     atom:   32    charge:    0.8600    magn:    0.0007    constr:    0.0000
     atom:   33    charge:    0.8583    magn:    0.0008    constr:    0.0000
     atom:   34    charge:    0.8653    magn:    0.0046    constr:    0.0000
     atom:   35    charge:    0.8583    magn:    0.0008    constr:    0.0000
     atom:   36    charge:    2.6847    magn:   -0.0003    constr:    0.0000
     atom:   37    charge:    2.6795    magn:   -0.0007    constr:    0.0000
     atom:   38    charge:    2.6799    magn:   -0.0128    constr:    0.0000
     atom:   39    charge:    2.6795    magn:   -0.0007    constr:    0.0000
     atom:   40    charge:    2.6847    magn:   -0.0003    constr:    0.0000
     atom:   41    charge:    2.6776    magn:   -0.0089    constr:    0.0000
     atom:   42    charge:    2.6840    magn:   -0.0035    constr:    0.0000
     atom:   43    charge:    2.6830    magn:   -0.0095    constr:    0.0000
     atom:   44    charge:    2.6780    magn:   -0.0195    constr:    0.0000
     atom:   45    charge:    2.6780    magn:   -0.0195    constr:    0.0000
     atom:   46    charge:    2.6830    magn:   -0.0095    constr:    0.0000
     atom:   47    charge:    2.6840    magn:   -0.0035    constr:    0.0000
     atom:   48    charge:    2.6861    magn:   -0.0036    constr:    0.0000
     atom:   49    charge:    2.6830    magn:    0.0001    constr:    0.0000
     atom:   50    charge:    2.6862    magn:   -0.0013    constr:    0.0000
     atom:   51    charge:    2.6862    magn:   -0.0013    constr:    0.0000
     atom:   52    charge:    2.6830    magn:    0.0001    constr:    0.0000
     atom:   53    charge:    2.6819    magn:   -0.0025    constr:    0.0000
     atom:   54    charge:    2.6819    magn:   -0.0025    constr:    0.0000
     atom:   55    charge:    2.6770    magn:   -0.0156    constr:    0.0000
     atom:   56    charge:    2.6597    magn:   -0.0401    constr:    0.0000
     atom:   57    charge:    2.6597    magn:   -0.0401    constr:    0.0000
     atom:   58    charge:    2.6770    magn:   -0.0156    constr:    0.0000
     atom:   59    charge:    2.6828    magn:   -0.0035    constr:    0.0000
     atom:   60    charge:    2.6765    magn:   -0.0084    constr:    0.0000
     atom:   61    charge:    2.6828    magn:   -0.0035    constr:    0.0000
     atom:   62    charge:    2.6788    magn:   -0.0016    constr:    0.0000
     atom:   63    charge:    2.6868    magn:   -0.0161    constr:    0.0000
     atom:   64    charge:    2.6788    magn:   -0.0016    constr:    0.0000
     atom:   65    charge:    2.6834    magn:   -0.0032    constr:    0.0000
     atom:   66    charge:    2.6830    magn:   -0.0028    constr:    0.0000
     atom:   67    charge:    2.6830    magn:   -0.0028    constr:    0.0000
     atom:   68    charge:    2.6834    magn:   -0.0032    constr:    0.0000
     atom:   69    charge:    2.6851    magn:   -0.0031    constr:    0.0000
     atom:   70    charge:    2.6851    magn:   -0.0031    constr:    0.0000
     atom:   71    charge:    1.5994    magn:    0.1831    constr:    0.0000
     atom:   72    charge:    1.6251    magn:   -0.1526    constr:    0.0000

     total cpu time spent up to now is       29.3 secs

     End of self-consistent calculation

 ------ SPIN UP ------------


          k = 0.0000 0.0000 0.0000 (144701 PWs)   bands (ev):

   -21.9226 -21.1807 -20.8547 -20.8035 -20.7580 -20.7328 -20.6349 -20.1265
   -19.9662 -19.8147 -19.7999 -19.7669 -19.6669 -19.4984 -19.4826 -19.3793
   -19.3417 -19.3237 -19.0996 -18.7503 -18.4945 -18.4138 -18.3715 -18.3429
   -18.3415 -18.3164 -18.3102 -18.2830 -18.2736 -18.2694 -18.2435 -18.1731
   -18.1517 -17.7485 -17.6618 -15.4075 -13.2082 -12.5500 -12.5453 -12.2411
   -12.0306 -11.8089 -11.7820 -11.7685 -11.7521 -11.7130 -11.7012 -11.6948
   -11.6785 -11.5906 -11.5875 -11.5735 -11.5296 -11.0217 -10.8067 -10.6882
   -10.6329 -10.5763 -10.5069 -10.4221 -10.4123  -9.6537  -9.4431  -9.2369
    -9.2302  -9.1839  -9.1635  -9.1379  -9.1154  -9.0499  -9.0392  -9.0194
    -9.0052  -8.9959  -8.9871  -8.9799  -8.9431  -8.9189  -8.8029  -8.6340
    -8.5108  -8.2298  -8.2033  -8.1638  -8.1331  -8.0627  -8.0295  -7.8577
    -7.8453  -7.7371  -7.6987  -7.6466  -7.6424  -7.5326  -7.5151  -7.4019
    -7.3201  -7.3137  -7.2651  -7.2324  -7.1506  -7.1275  -7.0279  -7.0190
    -6.9815  -6.9574  -6.8920  -6.8497  -6.8462  -6.8382  -6.8065  -6.7035
    -6.5129  -6.3899  -6.2777  -6.2441  -6.2206  -6.1936  -6.0464  -6.0013
    -5.9595  -5.9119  -5.8909  -5.8289  -5.4336  -4.9954  -4.9712  -4.9415
    -4.7779  -4.7658  -4.7401  -4.7278  -4.7114  -4.7017  -4.6885  -4.6642
    -4.6609  -4.6607  -4.5905  -4.5442  -4.4896  -3.9320  -3.6561  -2.9703
     0.1525   1.0136   1.0575   1.1036   1.1549   1.1606   1.4272   1.7169
     1.7642   1.7652   1.8139   1.8190   1.8611   1.8632   1.8733   1.8891
     1.9072   1.9105   1.9328   1.9553   1.9667   1.9706   1.9749   2.0322

     occupation numbers 
     1.0000   1.0000   1.0000   1.0000   1.0000   1.0000   1.0000   1.0000
     1.0000   1.0000   1.0000   1.0000   1.0000   1.0000   1.0000   1.0000
     1.0000   1.0000   1.0000   1.0000   1.0000   1.0000   1.0000   1.0000
     1.0000   1.0000   1.0000   1.0000   1.0000   1.0000   1.0000   1.0000
     1.0000   1.0000   1.0000   1.0000   1.0000   1.0000   1.0000   1.0000
     1.0000   1.0000   1.0000   1.0000   1.0000   1.0000   1.0000   1.0000
     1.0000   1.0000   1.0000   1.0000   1.0000   1.0000   1.0000   1.0000
     1.0000   1.0000   1.0000   1.0000   1.0000   1.0000   1.0000   1.0000
     1.0000   1.0000   1.0000   1.0000   1.0000   1.0000   1.0000   1.0000
     1.0000   1.0000   1.0000   1.0000   1.0000   1.0000   1.0000   1.0000
     1.0000   1.0000   1.0000   1.0000   1.0000   1.0000   1.0000   1.0000
     1.0000   1.0000   1.0000   1.0000   1.0000   1.0000   1.0000   1.0000
     1.0000   1.0000   1.0000   1.0000   1.0000   1.0000   1.0000   1.0000
     1.0000   1.0000   1.0000   1.0000   1.0000   1.0000   1.0000   1.0000
     1.0000   1.0000   1.0000   1.0000   1.0000   1.0000   1.0000   1.0000
     1.0000   1.0000   1.0000   1.0000   1.0000   1.0000   1.0000   1.0000
     1.0000   1.0000   1.0000   1.0000   1.0000   1.0000   1.0000   1.0000
     1.0000   1.0000   1.0000   1.0000   1.0000   1.0000   1.0000   0.0000
     1.0000   0.0000   0.0000   0.0000   0.0000   0.0000   0.0000   0.0000
     0.0000   0.0000   0.0000   0.0000   0.0000   0.0000   0.0000   0.0000
     0.0000   0.0000   0.0000   0.0000   0.0000   0.0000   0.0000   0.0000

 ------ SPIN DOWN ----------


          k = 0.0000 0.0000 0.0000 (144701 PWs)   bands (ev):

   -21.8643 -21.1792 -20.8635 -20.8087 -20.7610 -20.7369 -20.6428 -20.1229
   -19.9865 -19.8273 -19.8035 -19.7720 -19.6738 -19.4999 -19.4946 -19.3983
   -19.3449 -19.3280 -19.1150 -18.7741 -18.5005 -18.4236 -18.3816 -18.3546
   -18.3463 -18.3223 -18.3197 -18.2873 -18.2805 -18.2785 -18.2504 -18.1906
   -18.1728 -17.7640 -17.6722 -15.6053 -13.1604 -12.5475 -12.5355 -12.2273
   -12.0147 -11.8063 -11.7783 -11.7655 -11.7511 -11.7127 -11.6993 -11.6930
   -11.6726 -11.6090 -11.5876 -11.5681 -11.5331 -11.0110 -10.8008 -10.6822
   -10.6266 -10.5749 -10.5028 -10.4401 -10.4100  -9.6381  -9.4379  -9.2400
    -9.2285  -9.1883  -9.1673  -9.1379  -9.1138  -9.0497  -9.0393  -9.0246
    -9.0051  -8.9953  -8.9788  -8.9460  -8.9440  -8.9155  -8.8138  -8.6366
    -8.4300  -8.2329  -8.2065  -8.1614  -8.1325  -8.0599  -8.0376  -7.8602
    -7.8491  -7.7373  -7.6953  -7.6461  -7.6439  -7.5358  -7.5187  -7.4025
    -7.3215  -7.3153  -7.2679  -7.2382  -7.1566  -7.0480  -7.0312  -7.0184
    -6.9944  -6.9602  -6.9033  -6.8618  -6.8585  -6.8423  -6.8052  -6.7221
    -6.5294  -6.3576  -6.2937  -6.2730  -6.2152  -6.1895  -6.0567  -6.0490
    -5.9659  -5.9147  -5.8925  -5.8443  -5.4585  -5.0162  -5.0047  -4.9202
    -4.7949  -4.7748  -4.7569  -4.7388  -4.7349  -4.7219  -4.7207  -4.6860
    -4.6681  -4.6675  -4.6071  -4.5686  -4.5208  -4.0932  -3.6835  -3.4271
     0.7154   1.0716   1.0781   1.1389   1.1912   1.2102   1.5467   1.7493
     1.7996   1.8213   1.8363   1.8445   1.8769   1.8930   1.9094   1.9148
     1.9206   1.9224   1.9471   1.9642   1.9697   1.9852   2.0187   2.0522

     occupation numbers 
     1.0000   1.0000   1.0000   1.0000   1.0000   1.0000   1.0000   1.0000
     1.0000   1.0000   1.0000   1.0000   1.0000   1.0000   1.0000   1.0000
     1.0000   1.0000   1.0000   1.0000   1.0000   1.0000   1.0000   1.0000
     1.0000   1.0000   1.0000   1.0000   1.0000   1.0000   1.0000   1.0000
     1.0000   1.0000   1.0000   1.0000   1.0000   1.0000   1.0000   1.0000
     1.0000   1.0000   1.0000   1.0000   1.0000   1.0000   1.0000   1.0000
     1.0000   1.0000   1.0000   1.0000   1.0000   1.0000   1.0000   1.0000
     1.0000   1.0000   1.0000   1.0000   1.0000   1.0000   1.0000   1.0000
     1.0000   1.0000   1.0000   1.0000   1.0000   1.0000   1.0000   1.0000
     1.0000   1.0000   1.0000   1.0000   1.0000   1.0000   1.0000   1.0000
     1.0000   1.0000   1.0000   1.0000   1.0000   1.0000   1.0000   1.0000
     1.0000   1.0000   1.0000   1.0000   1.0000   1.0000   1.0000   1.0000
     1.0000   1.0000   1.0000   1.0000   1.0000   1.0000   1.0000   1.0000
     1.0000   1.0000   1.0000   1.0000   1.0000   1.0000   1.0000   1.0000
     1.0000   1.0000   1.0000   1.0000   1.0000   1.0000   1.0000   1.0000
     1.0000   1.0000   1.0000   1.0000   1.0000   1.0000   1.0000   1.0000
     1.0000   1.0000   1.0000   1.0000   1.0000   1.0000   1.0000   1.0000
     1.0000   1.0000   1.0000   1.0000   1.0000   1.0000   1.0000   1.0000
     0.0000   0.0000   0.0000   0.0000   0.0000   0.0000   0.0000   0.0000
     0.0000   0.0000   0.0000   0.0000   0.0000   0.0000   0.0000   0.0000
     0.0000   0.0000   0.0000   0.0000   0.0000   0.0000   0.0000   0.0000

     highest occupied, lowest unoccupied level (ev):    -3.4271   -2.9703

!    total energy              =    -923.69510406 Ry
     Harris-Foulkes estimate   =    -923.69510406 Ry
     estimated scf accuracy    <          8.5E-09 Ry

     The total energy is the sum of the following terms:

     one-electron contribution =   -6004.15710167 Ry
     hartree contribution      =    3060.25264230 Ry
     xc contribution           =    -264.85838274 Ry
     ewald contribution        =    2285.06773805 Ry

     total magnetization       =     0.00 Bohr mag/cell
     absolute magnetization    =     1.75 Bohr mag/cell

     convergence has been achieved in  15 iterations

     Writing output data file BN.save
 
     init_run     :      2.25s CPU      2.82s WALL (       1 calls)
     electrons    :     26.21s CPU     26.59s WALL (       1 calls)

     Called by init_run:
     wfcinit      :      0.52s CPU      0.54s WALL (       1 calls)
     wfcinit:atom :      0.00s CPU      0.00s WALL (       1 calls)
     wfcinit:wfcr :      0.49s CPU      0.51s WALL (       1 calls)
     potinit      :      0.35s CPU      0.36s WALL (       1 calls)

     Called by electrons:
     c_bands      :     23.59s CPU     23.85s WALL (      15 calls)
     sum_band     :      1.42s CPU      1.45s WALL (      15 calls)
     v_of_rho     :      0.74s CPU      0.75s WALL (      16 calls)
     v_h          :      0.03s CPU      0.03s WALL (      16 calls)
     v_xc         :      0.71s CPU      0.72s WALL (      16 calls)
     mix_rho      :      0.22s CPU      0.22s WALL (      15 calls)

     Called by c_bands:
     init_us_2    :      0.21s CPU      0.22s WALL (      31 calls)
     cegterg      :     21.91s CPU     22.16s WALL (      15 calls)

     Called by sum_band:

     Called by *egterg:
     h_psi        :     11.10s CPU     11.21s WALL (      96 calls)
     g_psi        :      0.05s CPU      0.05s WALL (      80 calls)
     cdiaghg      :      7.01s CPU      7.05s WALL (      95 calls)
     cegterg:over :      1.69s CPU      1.70s WALL (      80 calls)
     cegterg:upda :      1.07s CPU      1.08s WALL (      80 calls)
     cegterg:last :      0.35s CPU      0.35s WALL (      15 calls)

     Called by h_psi:
     h_psi:pot    :     10.92s CPU     11.02s WALL (      96 calls)
     h_psi:calbec :      1.58s CPU      1.60s WALL (      96 calls)
     vloc_psi     :      7.87s CPU      7.95s WALL (      96 calls)
     add_vuspsi   :      1.46s CPU      1.47s WALL (      96 calls)

     General routines
     calbec       :      1.58s CPU      1.60s WALL (      96 calls)
     fft          :      0.57s CPU      0.64s WALL (     333 calls)
     fftw         :      8.38s CPU      8.47s WALL (   17920 calls)
 
     Parallel routines
     fft_scatter  :      5.41s CPU      5.48s WALL (   18253 calls)
 
     PWSCF        :    31.16s CPU        33.22s WALL

 
   This run was terminated on:  23: 4:11  10Feb2021            

=------------------------------------------------------------------------------=
   JOB DONE.
=------------------------------------------------------------------------------=
