
     Program PWSCF v.6.1 (svn rev. 13369) starts on 10Feb2021 at 22:56:20 

     This program is part of the open-source Quantum ESPRESSO suite
     for quantum simulation of materials; please cite
         "P. Giannozzi et al., J. Phys.:Condens. Matter 21 395502 (2009);
          URL http://www.quantum-espresso.org", 
     in publications or presentations arising from this work. More details at
     http://www.quantum-espresso.org/quote

     Parallel version (MPI), running on   160 processors
     K-points division:     npool     =       2
     R & G space division:  proc/nbgrp/npool/nimage =      80
     Reading input from scf.in
Warning: card &CELL ignored
Warning: card / ignored
Warning: card &IONS ignored
Warning: card / ignored

     Current dimensions of program PWSCF are:
     Max number of different atomic species (ntypx) = 10
     Max number of k-points (npk) = 120000
     Max angular momentum in pseudopotentials (lmaxx) =  3

     Subspace diagonalization in iterative solution of the eigenvalue problem:
     a serial algorithm will be used

 
     Parallelization info
     --------------------
     sticks:   dense  smooth     PW     G-vecs:    dense   smooth      PW
     Min         153     153     38                14461    14461    1806
     Max         154     154     39                14464    14464    1813
     Sum       12259   12259   3067              1156971  1156971  144701
 


     bravais-lattice index     =            0
     lattice parameter (alat)  =      28.4287  a.u.
     unit-cell volume          =   20997.3881 (a.u.)^3
     number of atoms/cell      =           72
     number of atomic types    =            3
     number of electrons       =       288.00 (up: 144.00, down: 144.00)
     number of Kohn-Sham states=          168
     kinetic-energy cutoff     =      55.0000  Ry
     charge density cutoff     =     220.0000  Ry
     convergence threshold     =      1.0E-08
     mixing beta               =       0.7000
     number of iterations used =            8  plain     mixing
     Exchange-correlation      = PBE ( 1  4  3  4 0 0)

     celldm(1)=  28.428666  celldm(2)=   0.000000  celldm(3)=   0.000000
     celldm(4)=   0.000000  celldm(5)=   0.000000  celldm(6)=   0.000000

     crystal axes: (cart. coord. in units of alat)
               a(1) = (   1.000000   0.000000   0.000000 )  
               a(2) = (  -0.499999   0.866026   0.000000 )  
               a(3) = (   0.000000   0.000000   1.055273 )  

     reciprocal axes: (cart. coord. in units 2 pi/alat)
               b(1) = (  1.000000  0.577349  0.000000 )  
               b(2) = (  0.000000  1.154700  0.000000 )  
               b(3) = (  0.000000  0.000000  0.947622 )  


     PseudoPot. # 1 for B  read from file:
     ~/pseudo-ONCV-proj/B_ONCV_PBE-1.0.upf
     MD5 check sum: Not computed, couldn't open file
     Pseudo is Norm-conserving, Zval =  3.0
     Generated using ONCVPSP code by D. R. Hamann
     Using radial grid of 1534 points,  4 beta functions with: 
                l(1) =   0
                l(2) =   0
                l(3) =   1
                l(4) =   1

     PseudoPot. # 2 for N  read from file:
     ~/pseudo-ONCV-proj/N_ONCV_PBE-1.0.upf
     MD5 check sum: Not computed, couldn't open file
     Pseudo is Norm-conserving, Zval =  5.0
     Generated using ONCVPSP code by D. R. Hamann
     Using radial grid of 1058 points,  4 beta functions with: 
                l(1) =   0
                l(2) =   0
                l(3) =   1
                l(4) =   1

     PseudoPot. # 3 for C  read from file:
     ~/pseudo-ONCV-proj/C_ONCV_PBE-1.0.upf
     MD5 check sum: Not computed, couldn't open file
     Pseudo is Norm-conserving, Zval =  4.0
     Generated using ONCVPSP code by D. R. Hamann
     Using radial grid of 1248 points,  4 beta functions with: 
                l(1) =   0
                l(2) =   0
                l(3) =   1
                l(4) =   1

     atomic species   valence    mass     pseudopotential
        B              3.00    10.81100     B ( 1.00)
        N              5.00    14.00674     N ( 1.00)
        C              4.00    12.01070     C ( 1.00)

     Starting magnetic structure 
     atomic species   magnetization
        B            1.000
        N            0.000
        C            0.000

      2 Sym. Ops. (no inversion) found


                                    s                        frac. trans.

      isym =  1     identity                                     

 cryst.   s( 1) = (     1          0          0      )
                  (     0          1          0      )
                  (     0          0          1      )

 cart.    s( 1) = (  1.0000000 -0.0000000  0.0000000 )
                  (  0.0000000  1.0000000  0.0000000 )
                  (  0.0000000  0.0000000  1.0000000 )


      isym =  2     inv. 180 deg rotation - cart. axis [0,0,1]   

 cryst.   s( 2) = (     1          0          0      )
                  (     0          1          0      )
                  (     0          0         -1      )

 cart.    s( 2) = (  1.0000000 -0.0000000  0.0000000 )
                  (  0.0000000  1.0000000  0.0000000 )
                  (  0.0000000  0.0000000 -1.0000000 )


   Cartesian axes

     site n.     atom                  positions (alat units)
         1           B   tau(   1) = (  -0.0000976   0.0960058   0.5276366  )
         2           B   tau(   2) = (  -0.0833783   0.2404405   0.5276366  )
         3           B   tau(   3) = (  -0.1667946   0.3849222   0.5276366  )
         4           B   tau(   4) = (  -0.2502380   0.5292629   0.5276366  )
         5           B   tau(   5) = (  -0.3333031   0.6736005   0.5276366  )
         6           B   tau(   6) = (  -0.4166294   0.8179263   0.5276366  )
         7           B   tau(   7) = (   0.1666667   0.0959728   0.5276366  )
         8           B   tau(   8) = (   0.0831262   0.2401117   0.5276366  )
         9           B   tau(   9) = (   0.0001139   0.3849658   0.5276366  )
        10           B   tau(  10) = (  -0.0838269   0.5292837   0.5276366  )
        11           B   tau(  11) = (  -0.1668843   0.6737016   0.5276366  )
        12           B   tau(  12) = (  -0.2500075   0.8179084   0.5276366  )
        13           B   tau(  13) = (   0.3334450   0.0959767   0.5276366  )
        14           B   tau(  14) = (   0.2504363   0.2395831   0.5276366  )
        15           B   tau(  15) = (   0.1673193   0.3829408   0.5276366  )
        16           B   tau(  16) = (   0.0819631   0.5307825   0.5276366  )
        17           B   tau(  17) = (  -0.0006295   0.6744429   0.5276366  )
        18           B   tau(  18) = (  -0.0834916   0.8181339   0.5276366  )
        19           B   tau(  19) = (   0.5000099   0.0962306   0.5276366  )
        20           B   tau(  20) = (   0.4164268   0.2407434   0.5276366  )
        21           B   tau(  21) = (   0.3323274   0.3851712   0.5276366  )
        22           B   tau(  22) = (   0.1663989   0.6725686   0.5276366  )
        23           B   tau(  23) = (   0.0833708   0.8176149   0.5276366  )
        24           B   tau(  24) = (   0.6666426   0.0961410   0.5276366  )
        25           B   tau(  25) = (   0.5832488   0.2405836   0.5276366  )
        26           B   tau(  26) = (   0.4999410   0.3850554   0.5276366  )
        27           B   tau(  27) = (   0.4171105   0.5298477   0.5276366  )
        28           B   tau(  28) = (   0.3340837   0.6736545   0.5276366  )
        29           B   tau(  29) = (   0.2501055   0.8177842   0.5276366  )
        30           B   tau(  30) = (   0.8332737   0.0961481   0.5276366  )
        31           B   tau(  31) = (   0.7499545   0.2405362   0.5276366  )
        32           B   tau(  32) = (   0.6665707   0.3848869   0.5276366  )
        33           B   tau(  33) = (   0.5832249   0.5292646   0.5276366  )
        34           B   tau(  34) = (   0.5005047   0.6738665   0.5276366  )
        35           B   tau(  35) = (   0.4166362   0.8178055   0.5276366  )
        36           N   tau(  36) = (   0.0832202   0.0479504   0.5276366  )
        37           N   tau(  37) = (  -0.0002780   0.1920175   0.5276366  )
        38           N   tau(  38) = (  -0.0833551   0.3367748   0.5276366  )
        39           N   tau(  39) = (  -0.1671797   0.4811006   0.5276366  )
        40           N   tau(  40) = (  -0.2501961   0.6254460   0.5276366  )
        41           N   tau(  41) = (  -0.3334086   0.7697567   0.5276366  )
        42           N   tau(  42) = (   0.2500360   0.0479579   0.5276366  )
        43           N   tau(  43) = (   0.1666585   0.1918973   0.5276366  )
        44           N   tau(  44) = (   0.0832006   0.3359516   0.5276366  )
        45           N   tau(  45) = (  -0.0007901   0.4814280   0.5276366  )
        46           N   tau(  46) = (  -0.0838154   0.6257321   0.5276366  )
        47           N   tau(  47) = (  -0.1667815   0.7699090   0.5276366  )
        48           N   tau(  48) = (   0.4168038   0.0481915   0.5276366  )
        49           N   tau(  49) = (   0.3337999   0.1918501   0.5276366  )
        50           N   tau(  50) = (   0.2506847   0.3348615   0.5276366  )
        51           N   tau(  51) = (   0.0820082   0.6270187   0.5276366  )
        52           N   tau(  52) = (  -0.0002854   0.7705045   0.5276366  )
        53           N   tau(  53) = (   0.5834869   0.0479121   0.5276366  )
        54           N   tau(  54) = (   0.4999036   0.1926831   0.5276366  )
        55           N   tau(  55) = (   0.4160653   0.3377213   0.5276366  )
        56           N   tau(  56) = (   0.3324762   0.4834563   0.5276366  )
        57           N   tau(  57) = (   0.2515906   0.6235548   0.5276366  )
        58           N   tau(  58) = (   0.1671752   0.7688127   0.5276366  )
        59           N   tau(  59) = (   0.7499220   0.0478738   0.5276366  )
        60           N   tau(  60) = (   0.6665701   0.1923941   0.5276366  )
        61           N   tau(  61) = (   0.5830881   0.3368394   0.5276366  )
        62           N   tau(  62) = (   0.4997325   0.4811745   0.5276366  )
        63           N   tau(  63) = (   0.4173226   0.6258413   0.5276366  )
        64           N   tau(  64) = (   0.3332428   0.7695439   0.5276366  )
        65           N   tau(  65) = (   0.9164666   0.0478776   0.5276366  )
        66           N   tau(  66) = (   0.8331850   0.1923553   0.5276366  )
        67           N   tau(  67) = (   0.7498442   0.3367064   0.5276366  )
        68           N   tau(  68) = (   0.6663639   0.4810694   0.5276366  )
        69           N   tau(  69) = (   0.5834200   0.6254656   0.5276366  )
        70           N   tau(  70) = (   0.5000461   0.7698738   0.5276366  )
        71           C   tau(  71) = (   0.2526324   0.5307574   0.5276366  )
        72           C   tau(  72) = (   0.1695480   0.4827885   0.5276366  )

   Crystallographic axes

     site n.     atom                  positions (cryst. coord.)
         1           B   tau(   1) = (  0.0553312  0.1108578  0.5000000  )
         2           B   tau(   2) = (  0.0554397  0.2776366  0.5000000  )
         3           B   tau(   3) = (  0.0554397  0.4444695  0.5000000  )
         4           B   tau(   4) = (  0.0553312  0.6111397  0.5000000  )
         5           B   tau(   5) = (  0.0555993  0.7778063  0.5000000  )
         6           B   tau(   6) = (  0.0555993  0.9444593  0.5000000  )
         7           B   tau(   7) = (  0.2220764  0.1108197  0.5000000  )
         8           B   tau(   8) = (  0.2217544  0.2772570  0.5000000  )
         9           B   tau(   9) = (  0.2223734  0.4445199  0.5000000  )
        10           B   tau(  10) = (  0.2217544  0.6111638  0.5000000  )
        11           B   tau(  11) = (  0.2220764  0.7779230  0.5000000  )
        12           B   tau(  12) = (  0.2222109  0.9444386  0.5000000  )
        13           B   tau(  13) = (  0.3888570  0.1108243  0.5000000  )
        14           B   tau(  14) = (  0.3887593  0.2766465  0.5000000  )
        15           B   tau(  15) = (  0.3884097  0.4421817  0.5000000  )
        16           B   tau(  16) = (  0.3884097  0.6128944  0.5000000  )
        17           B   tau(  17) = (  0.3887593  0.7787791  0.5000000  )
        18           B   tau(  18) = (  0.3888570  0.9446991  0.5000000  )
        19           B   tau(  19) = (  0.5555685  0.1111174  0.5000000  )
        20           B   tau(  20) = (  0.5554197  0.2779864  0.5000000  )
        21           B   tau(  21) = (  0.5547055  0.4447570  0.5000000  )
        22           B   tau(  22) = (  0.5547055  0.7766148  0.5000000  )
        23           B   tau(  23) = (  0.5554197  0.9440997  0.5000000  )
        24           B   tau(  24) = (  0.7221495  0.1110140  0.5000000  )
        25           B   tau(  25) = (  0.7221495  0.2778019  0.5000000  )
        26           B   tau(  26) = (  0.7222522  0.4446233  0.5000000  )
        27           B   tau(  27) = (  0.7230173  0.6118150  0.5000000  )
        28           B   tau(  28) = (  0.7230173  0.7778687  0.5000000  )
        29           B   tau(  29) = (  0.7222522  0.9442953  0.5000000  )
        30           B   tau(  30) = (  0.8887847  0.1110222  0.5000000  )
        31           B   tau(  31) = (  0.8888277  0.2777470  0.5000000  )
        32           B   tau(  32) = (  0.8887847  0.4444288  0.5000000  )
        33           B   tau(  33) = (  0.8887952  0.6111417  0.5000000  )
        34           B   tau(  34) = (  0.8895607  0.7781135  0.5000000  )
        35           B   tau(  35) = (  0.8887952  0.9443198  0.5000000  )
        36           N   tau(  36) = (  0.1109043  0.0553683  0.5000000  )
        37           N   tau(  37) = (  0.1105831  0.2217226  0.5000000  )
        38           N   tau(  38) = (  0.1110814  0.3888738  0.5000000  )
        39           N   tau(  39) = (  0.1105831  0.5555267  0.5000000  )
        40           N   tau(  40) = (  0.1109043  0.7222023  0.5000000  )
        41           N   tau(  41) = (  0.1110094  0.8888379  0.5000000  )
        42           N   tau(  42) = (  0.2777244  0.0553770  0.5000000  )
        43           N   tau(  43) = (  0.2774502  0.2215838  0.5000000  )
        44           N   tau(  44) = (  0.2771618  0.3879232  0.5000000  )
        45           N   tau(  45) = (  0.2771618  0.5559048  0.5000000  )
        46           N   tau(  46) = (  0.2774502  0.7225327  0.5000000  )
        47           N   tau(  47) = (  0.2777244  0.8890137  0.5000000  )
        48           N   tau(  48) = (  0.4446271  0.0556467  0.5000000  )
        49           N   tau(  49) = (  0.4445644  0.2215293  0.5000000  )
        50           N   tau(  50) = (  0.4440166  0.3866645  0.5000000  )
        51           N   tau(  51) = (  0.4440166  0.7240184  0.5000000  )
        52           N   tau(  52) = (  0.4445644  0.8897013  0.5000000  )
        53           N   tau(  53) = (  0.6111489  0.0553241  0.5000000  )
        54           N   tau(  54) = (  0.6111489  0.2224911  0.5000000  )
        55           N   tau(  55) = (  0.6110482  0.3899667  0.5000000  )
        56           N   tau(  56) = (  0.6115992  0.5582469  0.5000000  )
        57           N   tau(  57) = (  0.6115991  0.7200185  0.5000000  )
        58           N   tau(  58) = (  0.6110482  0.8877478  0.5000000  )
        59           N   tau(  59) = (  0.7775619  0.0552799  0.5000000  )
        60           N   tau(  60) = (  0.7776486  0.2221575  0.5000000  )
        61           N   tau(  61) = (  0.7775619  0.3889483  0.5000000  )
        62           N   tau(  62) = (  0.7775380  0.5556121  0.5000000  )
        63           N   tau(  63) = (  0.7786513  0.7226588  0.5000000  )
        64           N   tau(  64) = (  0.7775380  0.8885922  0.5000000  )
        65           N   tau(  65) = (  0.9441086  0.0552842  0.5000000  )
        66           N   tau(  66) = (  0.9442411  0.2221127  0.5000000  )
        67           N   tau(  67) = (  0.9442412  0.3887948  0.5000000  )
        68           N   tau(  68) = (  0.9441086  0.5554907  0.5000000  )
        69           N   tau(  69) = (  0.9445317  0.7222249  0.5000000  )
        70           N   tau(  70) = (  0.9445317  0.8889731  0.5000000  )
        71           C   tau(  71) = (  0.5590645  0.6128654  0.5000000  )
        72           C   tau(  72) = (  0.4482853  0.5574758  0.5000000  )

     number of k points=     1
                       cart. coord. in units 2pi/alat
        k(    1) = (   0.0000000   0.0000000   0.0000000), wk =   1.0000000

                       cryst. coord.
        k(    1) = (   0.0000000   0.0000000   0.0000000), wk =   1.0000000

     Dense  grid:  1156971 G-vectors     FFT dimensions: ( 135, 135, 144)

     Estimated max dynamical RAM per process >      68.84MB

     Estimated total allocated dynamical RAM >   11014.86MB
     Generating pointlists ...
     new r_m :   0.0393 (alat units)  1.1173 (a.u.) for type    1
     new r_m :   0.0383 (alat units)  1.0883 (a.u.) for type    2
     new r_m :   0.0383 (alat units)  1.0883 (a.u.) for type    3

     Initial potential from superposition of free atoms
     Check: negative starting charge=(component1):   -0.001385
     Check: negative starting charge=(component2):   -0.001913

     starting charge  287.99093, renormalised to  288.00000

     negative rho (up, down):  1.386E-03 1.913E-03
     Starting wfc are  288 randomized atomic wfcs

     total cpu time spent up to now is        2.9 secs

     per-process dynamical memory:    91.4 Mb

     Self-consistent Calculation

     iteration #  1     ecut=    55.00 Ry     beta=0.70
     Davidson diagonalization with overlap
     ethr =  1.00E-02,  avg # of iterations =  2.5

     negative rho (up, down):  1.552E-04 3.038E-04

     total cpu time spent up to now is        8.1 secs

     total energy              =    -916.55833485 Ry
     Harris-Foulkes estimate   =    -922.74180230 Ry
     estimated scf accuracy    <      17.35218227 Ry

     total magnetization       =    -0.00 Bohr mag/cell
     absolute magnetization    =    18.29 Bohr mag/cell

     iteration #  2     ecut=    55.00 Ry     beta=0.70
     Davidson diagonalization with overlap
     ethr =  6.03E-03,  avg # of iterations =  3.0

     negative rho (up, down):  6.396E-05 1.187E-04

     total cpu time spent up to now is        9.5 secs

     total energy              =    -921.47535373 Ry
     Harris-Foulkes estimate   =    -925.97226424 Ry
     estimated scf accuracy    <      10.42069827 Ry

     total magnetization       =    -0.00 Bohr mag/cell
     absolute magnetization    =    13.60 Bohr mag/cell

     iteration #  3     ecut=    55.00 Ry     beta=0.70
     Davidson diagonalization with overlap
     ethr =  3.62E-03,  avg # of iterations =  3.0

     negative rho (up, down):  5.395E-06 1.182E-05

     total cpu time spent up to now is       10.7 secs

     total energy              =    -923.57133973 Ry
     Harris-Foulkes estimate   =    -923.53507967 Ry
     estimated scf accuracy    <       0.43353721 Ry

     total magnetization       =     0.00 Bohr mag/cell
     absolute magnetization    =     8.66 Bohr mag/cell

     iteration #  4     ecut=    55.00 Ry     beta=0.70
     Davidson diagonalization with overlap
     c_bands:  1 eigenvalues not converged
     ethr =  1.51E-04,  avg # of iterations = 18.0

     total cpu time spent up to now is       14.8 secs

     total energy              =    -923.77157969 Ry
     Harris-Foulkes estimate   =    -923.96263953 Ry
     estimated scf accuracy    <       0.67951172 Ry

     total magnetization       =     0.00 Bohr mag/cell
     absolute magnetization    =     5.27 Bohr mag/cell

     iteration #  5     ecut=    55.00 Ry     beta=0.70
     Davidson diagonalization with overlap
     ethr =  1.51E-04,  avg # of iterations =  7.0

     negative rho (up, down):  6.756E-09 1.201E-08

     total cpu time spent up to now is       16.6 secs

     total energy              =    -923.90100808 Ry
     Harris-Foulkes estimate   =    -923.90286760 Ry
     estimated scf accuracy    <       0.03549883 Ry

     total magnetization       =    -0.00 Bohr mag/cell
     absolute magnetization    =     3.55 Bohr mag/cell

     iteration #  6     ecut=    55.00 Ry     beta=0.70
     Davidson diagonalization with overlap
     ethr =  1.23E-05,  avg # of iterations =  8.5

     total cpu time spent up to now is       18.7 secs

     total energy              =    -923.92144115 Ry
     Harris-Foulkes estimate   =    -923.90961403 Ry
     estimated scf accuracy    <       0.00658102 Ry

     total magnetization       =    -0.00 Bohr mag/cell
     absolute magnetization    =     2.69 Bohr mag/cell

     iteration #  7     ecut=    55.00 Ry     beta=0.70
     Davidson diagonalization with overlap
     ethr =  2.29E-06,  avg # of iterations =  4.0

     total cpu time spent up to now is       20.8 secs

     total energy              =    -923.92972151 Ry
     Harris-Foulkes estimate   =    -923.92967937 Ry
     estimated scf accuracy    <       0.00551934 Ry

     total magnetization       =    -0.00 Bohr mag/cell
     absolute magnetization    =     1.03 Bohr mag/cell

     iteration #  8     ecut=    55.00 Ry     beta=0.70
     Davidson diagonalization with overlap
     ethr =  1.92E-06,  avg # of iterations =  2.5

     total cpu time spent up to now is       22.2 secs

     total energy              =    -923.93067739 Ry
     Harris-Foulkes estimate   =    -923.93058858 Ry
     estimated scf accuracy    <       0.00109865 Ry

     total magnetization       =    -0.00 Bohr mag/cell
     absolute magnetization    =     0.58 Bohr mag/cell

     iteration #  9     ecut=    55.00 Ry     beta=0.70
     Davidson diagonalization with overlap
     ethr =  3.81E-07,  avg # of iterations =  3.0

     total cpu time spent up to now is       23.7 secs

     total energy              =    -923.93119380 Ry
     Harris-Foulkes estimate   =    -923.93117877 Ry
     estimated scf accuracy    <       0.00009166 Ry

     total magnetization       =    -0.00 Bohr mag/cell
     absolute magnetization    =     0.20 Bohr mag/cell

     iteration # 10     ecut=    55.00 Ry     beta=0.70
     Davidson diagonalization with overlap
     ethr =  3.18E-08,  avg # of iterations =  3.0

     total cpu time spent up to now is       25.2 secs

     total energy              =    -923.93128146 Ry
     Harris-Foulkes estimate   =    -923.93128885 Ry
     estimated scf accuracy    <       0.00002084 Ry

     total magnetization       =     0.00 Bohr mag/cell
     absolute magnetization    =     0.02 Bohr mag/cell

     iteration # 11     ecut=    55.00 Ry     beta=0.70
     Davidson diagonalization with overlap
     ethr =  7.24E-09,  avg # of iterations =  3.0

     total cpu time spent up to now is       26.5 secs

     total energy              =    -923.93128666 Ry
     Harris-Foulkes estimate   =    -923.93128638 Ry
     estimated scf accuracy    <       0.00000097 Ry

     total magnetization       =    -0.00 Bohr mag/cell
     absolute magnetization    =     0.01 Bohr mag/cell

     iteration # 12     ecut=    55.00 Ry     beta=0.70
     Davidson diagonalization with overlap
     ethr =  3.39E-10,  avg # of iterations =  3.5

     total cpu time spent up to now is       28.0 secs

     total energy              =    -923.93128721 Ry
     Harris-Foulkes estimate   =    -923.93128709 Ry
     estimated scf accuracy    <       0.00000021 Ry

     total magnetization       =    -0.00 Bohr mag/cell
     absolute magnetization    =     0.00 Bohr mag/cell

     iteration # 13     ecut=    55.00 Ry     beta=0.70
     Davidson diagonalization with overlap
     ethr =  7.30E-11,  avg # of iterations =  3.5

     total cpu time spent up to now is       29.3 secs

     total energy              =    -923.93128736 Ry
     Harris-Foulkes estimate   =    -923.93128729 Ry
     estimated scf accuracy    <       0.00000004 Ry

     total magnetization       =    -0.00 Bohr mag/cell
     absolute magnetization    =     0.00 Bohr mag/cell

     iteration # 14     ecut=    55.00 Ry     beta=0.70
     Davidson diagonalization with overlap
     ethr =  1.40E-11,  avg # of iterations =  4.0

     total cpu time spent up to now is       30.8 secs

     total energy              =    -923.93128740 Ry
     Harris-Foulkes estimate   =    -923.93128739 Ry
     estimated scf accuracy    <       0.00000002 Ry

     total magnetization       =    -0.00 Bohr mag/cell
     absolute magnetization    =     0.00 Bohr mag/cell

     iteration # 15     ecut=    55.00 Ry     beta=0.70
     Davidson diagonalization with overlap
     ethr =  6.02E-12,  avg # of iterations =  4.0
 
     Magnetic moment per site:
     atom:    1    charge:    0.8585    magn:   -0.0000    constr:    0.0000
     atom:    2    charge:    0.8566    magn:   -0.0000    constr:    0.0000
     atom:    3    charge:    0.8566    magn:   -0.0000    constr:    0.0000
     atom:    4    charge:    0.8585    magn:   -0.0000    constr:    0.0000
     atom:    5    charge:    0.8596    magn:   -0.0000    constr:    0.0000
     atom:    6    charge:    0.8596    magn:   -0.0000    constr:    0.0000
     atom:    7    charge:    0.8613    magn:   -0.0000    constr:    0.0000
     atom:    8    charge:    0.8591    magn:   -0.0000    constr:    0.0000
     atom:    9    charge:    0.8543    magn:   -0.0000    constr:    0.0000
     atom:   10    charge:    0.8591    magn:   -0.0000    constr:    0.0000
     atom:   11    charge:    0.8613    magn:   -0.0000    constr:    0.0000
     atom:   12    charge:    0.8592    magn:   -0.0000    constr:    0.0000
     atom:   13    charge:    0.8608    magn:   -0.0000    constr:    0.0000
     atom:   14    charge:    0.8649    magn:   -0.0000    constr:    0.0000
     atom:   15    charge:    0.8655    magn:   -0.0000    constr:    0.0000
     atom:   16    charge:    0.8655    magn:   -0.0000    constr:    0.0000
     atom:   17    charge:    0.8649    magn:   -0.0000    constr:    0.0000
     atom:   18    charge:    0.8608    magn:   -0.0000    constr:    0.0000
     atom:   19    charge:    0.8571    magn:   -0.0000    constr:    0.0000
     atom:   20    charge:    0.8531    magn:   -0.0000    constr:    0.0000
     atom:   21    charge:    0.8483    magn:    0.0000    constr:    0.0000
     atom:   22    charge:    0.8483    magn:    0.0000    constr:    0.0000
     atom:   23    charge:    0.8531    magn:   -0.0000    constr:    0.0000
     atom:   24    charge:    0.8577    magn:   -0.0000    constr:    0.0000
     atom:   25    charge:    0.8577    magn:   -0.0000    constr:    0.0000
     atom:   26    charge:    0.8584    magn:   -0.0000    constr:    0.0000
     atom:   27    charge:    0.8618    magn:   -0.0000    constr:    0.0000
     atom:   28    charge:    0.8618    magn:   -0.0000    constr:    0.0000
     atom:   29    charge:    0.8584    magn:   -0.0000    constr:    0.0000
     atom:   30    charge:    0.8591    magn:   -0.0000    constr:    0.0000
     atom:   31    charge:    0.8578    magn:   -0.0000    constr:    0.0000
     atom:   32    charge:    0.8591    magn:   -0.0000    constr:    0.0000
     atom:   33    charge:    0.8575    magn:   -0.0000    constr:    0.0000
     atom:   34    charge:    0.8634    magn:   -0.0000    constr:    0.0000
     atom:   35    charge:    0.8575    magn:   -0.0000    constr:    0.0000
     atom:   36    charge:    2.6823    magn:    0.0000    constr:    0.0000
     atom:   37    charge:    2.6772    magn:    0.0000    constr:    0.0000
     atom:   38    charge:    2.6791    magn:    0.0000    constr:    0.0000
     atom:   39    charge:    2.6772    magn:    0.0000    constr:    0.0000
     atom:   40    charge:    2.6823    magn:    0.0000    constr:    0.0000
     atom:   41    charge:    2.6763    magn:    0.0000    constr:    0.0000
     atom:   42    charge:    2.6823    magn:    0.0000    constr:    0.0000
     atom:   43    charge:    2.6816    magn:    0.0000    constr:    0.0000
     atom:   44    charge:    2.6782    magn:    0.0000    constr:    0.0000
     atom:   45    charge:    2.6782    magn:    0.0000    constr:    0.0000
     atom:   46    charge:    2.6816    magn:    0.0000    constr:    0.0000
     atom:   47    charge:    2.6823    magn:    0.0000    constr:    0.0000
     atom:   48    charge:    2.6841    magn:    0.0000    constr:    0.0000
     atom:   49    charge:    2.6806    magn:    0.0000    constr:    0.0000
     atom:   50    charge:    2.6827    magn:    0.0000    constr:    0.0000
     atom:   51    charge:    2.6827    magn:    0.0000    constr:    0.0000
     atom:   52    charge:    2.6806    magn:    0.0000    constr:    0.0000
     atom:   53    charge:    2.6797    magn:    0.0000    constr:    0.0000
     atom:   54    charge:    2.6797    magn:    0.0000    constr:    0.0000
     atom:   55    charge:    2.6763    magn:    0.0000    constr:    0.0000
     atom:   56    charge:    2.6655    magn:   -0.0000    constr:    0.0000
     atom:   57    charge:    2.6655    magn:   -0.0000    constr:    0.0000
     atom:   58    charge:    2.6763    magn:    0.0000    constr:    0.0000
     atom:   59    charge:    2.6809    magn:    0.0000    constr:    0.0000
     atom:   60    charge:    2.6751    magn:    0.0000    constr:    0.0000
     atom:   61    charge:    2.6809    magn:    0.0000    constr:    0.0000
     atom:   62    charge:    2.6770    magn:    0.0000    constr:    0.0000
     atom:   63    charge:    2.6861    magn:    0.0000    constr:    0.0000
     atom:   64    charge:    2.6770    magn:    0.0000    constr:    0.0000
     atom:   65    charge:    2.6815    magn:    0.0000    constr:    0.0000
     atom:   66    charge:    2.6812    magn:    0.0000    constr:    0.0000
     atom:   67    charge:    2.6812    magn:    0.0000    constr:    0.0000
     atom:   68    charge:    2.6815    magn:    0.0000    constr:    0.0000
     atom:   69    charge:    2.6831    magn:    0.0000    constr:    0.0000
     atom:   70    charge:    2.6831    magn:    0.0000    constr:    0.0000
     atom:   71    charge:    1.5596    magn:    0.0001    constr:    0.0000
     atom:   72    charge:    1.6321    magn:   -0.0000    constr:    0.0000

     total cpu time spent up to now is       32.3 secs

     End of self-consistent calculation

 ------ SPIN UP ------------


          k = 0.0000 0.0000 0.0000 (144701 PWs)   bands (ev):

   -22.0762 -21.1810 -20.8765 -20.8068 -20.7528 -20.7259 -20.6114 -20.1357
   -20.0276 -19.8103 -19.8082 -19.7556 -19.6633 -19.4964 -19.4934 -19.3604
   -19.3393 -19.3234 -19.0769 -18.8060 -18.5066 -18.4422 -18.3821 -18.3429
   -18.3412 -18.3109 -18.2990 -18.2685 -18.2660 -18.2583 -18.2242 -18.1389
   -18.1162 -17.7332 -17.6520 -15.3150 -13.2577 -12.5518 -12.5400 -12.2431
   -12.0954 -11.8050 -11.7978 -11.7574 -11.7471 -11.7020 -11.6929 -11.6853
   -11.6552 -11.5759 -11.5752 -11.5540 -11.5021 -11.0144 -10.7968 -10.6949
   -10.6208 -10.5690 -10.4924 -10.4215 -10.3935  -9.7097  -9.4502  -9.2510
    -9.2266  -9.1756  -9.1615  -9.1423  -9.1186  -9.0446  -9.0369  -9.0085
    -9.0067  -9.0013  -8.9858  -8.9621  -8.9216  -8.8891  -8.7825  -8.5957
    -8.5225  -8.2381  -8.2025  -8.1551  -8.1221  -8.0784  -7.9967  -7.8555
    -7.8540  -7.7385  -7.6904  -7.6393  -7.6363  -7.5159  -7.5037  -7.3937
    -7.3192  -7.3073  -7.2535  -7.2149  -7.1354  -7.1241  -7.0105  -7.0099
    -6.9835  -6.9361  -6.9152  -6.8445  -6.8393  -6.8095  -6.7936  -6.6934
    -6.4639  -6.3796  -6.2867  -6.2327  -6.2141  -6.1877  -6.0449  -5.9798
    -5.9487  -5.9009  -5.8811  -5.7866  -5.3753  -5.0166  -4.9738  -4.9680
    -4.8060  -4.7783  -4.7394  -4.7269  -4.7086  -4.6908  -4.6547  -4.6527
    -4.6441  -4.5787  -4.5552  -4.5221  -4.4618  -3.9318  -3.6632  -3.0306
     0.2998   1.0352   1.0675   1.1216   1.1715   1.1934   1.4636   1.7137
     1.7771   1.7810   1.8216   1.8343   1.8780   1.8880   1.9017   1.9136
     1.9143   1.9185   1.9377   1.9693   1.9857   1.9886   2.0405   2.0835

     occupation numbers 
     1.0000   1.0000   1.0000   1.0000   1.0000   1.0000   1.0000   1.0000
     1.0000   1.0000   1.0000   1.0000   1.0000   1.0000   1.0000   1.0000
     1.0000   1.0000   1.0000   1.0000   1.0000   1.0000   1.0000   1.0000
     1.0000   1.0000   1.0000   1.0000   1.0000   1.0000   1.0000   1.0000
     1.0000   1.0000   1.0000   1.0000   1.0000   1.0000   1.0000   1.0000
     1.0000   1.0000   1.0000   1.0000   1.0000   1.0000   1.0000   1.0000
     1.0000   1.0000   1.0000   1.0000   1.0000   1.0000   1.0000   1.0000
     1.0000   1.0000   1.0000   1.0000   1.0000   1.0000   1.0000   1.0000
     1.0000   1.0000   1.0000   1.0000   1.0000   1.0000   1.0000   1.0000
     1.0000   1.0000   1.0000   1.0000   1.0000   1.0000   1.0000   1.0000
     1.0000   1.0000   1.0000   1.0000   1.0000   1.0000   1.0000   1.0000
     1.0000   1.0000   1.0000   1.0000   1.0000   1.0000   1.0000   1.0000
     1.0000   1.0000   1.0000   1.0000   1.0000   1.0000   1.0000   1.0000
     1.0000   1.0000   1.0000   1.0000   1.0000   1.0000   1.0000   1.0000
     1.0000   1.0000   1.0000   1.0000   1.0000   1.0000   1.0000   1.0000
     1.0000   1.0000   1.0000   1.0000   1.0000   1.0000   1.0000   1.0000
     1.0000   1.0000   1.0000   1.0000   1.0000   1.0000   1.0000   1.0000
     1.0000   1.0000   1.0000   1.0000   1.0000   1.0000   1.0000   1.0000
     0.0000   0.0000   0.0000   0.0000   0.0000   0.0000   0.0000   0.0000
     0.0000   0.0000   0.0000   0.0000   0.0000   0.0000   0.0000   0.0000
     0.0000   0.0000   0.0000   0.0000   0.0000   0.0000   0.0000   0.0000

 ------ SPIN DOWN ----------


          k = 0.0000 0.0000 0.0000 (144701 PWs)   bands (ev):

   -22.0761 -21.1810 -20.8765 -20.8067 -20.7528 -20.7259 -20.6114 -20.1357
   -20.0276 -19.8103 -19.8082 -19.7556 -19.6633 -19.4963 -19.4933 -19.3604
   -19.3393 -19.3233 -19.0769 -18.8060 -18.5066 -18.4421 -18.3821 -18.3428
   -18.3412 -18.3109 -18.2990 -18.2685 -18.2659 -18.2583 -18.2242 -18.1389
   -18.1162 -17.7332 -17.6520 -15.3150 -13.2577 -12.5518 -12.5400 -12.2431
   -12.0954 -11.8050 -11.7978 -11.7574 -11.7471 -11.7020 -11.6929 -11.6853
   -11.6553 -11.5759 -11.5752 -11.5540 -11.5021 -11.0144 -10.7968 -10.6949
   -10.6208 -10.5690 -10.4924 -10.4215 -10.3935  -9.7097  -9.4502  -9.2510
    -9.2266  -9.1756  -9.1615  -9.1423  -9.1186  -9.0446  -9.0369  -9.0085
    -9.0066  -9.0013  -8.9858  -8.9621  -8.9216  -8.8891  -8.7825  -8.5957
    -8.5224  -8.2381  -8.2025  -8.1551  -8.1221  -8.0784  -7.9967  -7.8555
    -7.8540  -7.7385  -7.6904  -7.6393  -7.6363  -7.5159  -7.5037  -7.3937
    -7.3192  -7.3073  -7.2535  -7.2149  -7.1354  -7.1240  -7.0105  -7.0099
    -6.9835  -6.9361  -6.9152  -6.8445  -6.8393  -6.8095  -6.7936  -6.6934
    -6.4639  -6.3796  -6.2867  -6.2327  -6.2141  -6.1877  -6.0449  -5.9798
    -5.9487  -5.9009  -5.8811  -5.7866  -5.3753  -5.0166  -4.9738  -4.9679
    -4.8059  -4.7783  -4.7393  -4.7269  -4.7085  -4.6907  -4.6547  -4.6527
    -4.6441  -4.5787  -4.5552  -4.5221  -4.4618  -3.9318  -3.6632  -3.0308
     0.3002   1.0352   1.0675   1.1215   1.1714   1.1934   1.4636   1.7137
     1.7771   1.7810   1.8216   1.8343   1.8780   1.8879   1.9016   1.9136
     1.9142   1.9184   1.9376   1.9690   1.9856   1.9886   2.0404   2.0730

     occupation numbers 
     1.0000   1.0000   1.0000   1.0000   1.0000   1.0000   1.0000   1.0000
     1.0000   1.0000   1.0000   1.0000   1.0000   1.0000   1.0000   1.0000
     1.0000   1.0000   1.0000   1.0000   1.0000   1.0000   1.0000   1.0000
     1.0000   1.0000   1.0000   1.0000   1.0000   1.0000   1.0000   1.0000
     1.0000   1.0000   1.0000   1.0000   1.0000   1.0000   1.0000   1.0000
     1.0000   1.0000   1.0000   1.0000   1.0000   1.0000   1.0000   1.0000
     1.0000   1.0000   1.0000   1.0000   1.0000   1.0000   1.0000   1.0000
     1.0000   1.0000   1.0000   1.0000   1.0000   1.0000   1.0000   1.0000
     1.0000   1.0000   1.0000   1.0000   1.0000   1.0000   1.0000   1.0000
     1.0000   1.0000   1.0000   1.0000   1.0000   1.0000   1.0000   1.0000
     1.0000   1.0000   1.0000   1.0000   1.0000   1.0000   1.0000   1.0000
     1.0000   1.0000   1.0000   1.0000   1.0000   1.0000   1.0000   1.0000
     1.0000   1.0000   1.0000   1.0000   1.0000   1.0000   1.0000   1.0000
     1.0000   1.0000   1.0000   1.0000   1.0000   1.0000   1.0000   1.0000
     1.0000   1.0000   1.0000   1.0000   1.0000   1.0000   1.0000   1.0000
     1.0000   1.0000   1.0000   1.0000   1.0000   1.0000   1.0000   1.0000
     1.0000   1.0000   1.0000   1.0000   1.0000   1.0000   1.0000   1.0000
     1.0000   1.0000   1.0000   1.0000   1.0000   1.0000   1.0000   1.0000
     0.0000   0.0000   0.0000   0.0000   0.0000   0.0000   0.0000   0.0000
     0.0000   0.0000   0.0000   0.0000   0.0000   0.0000   0.0000   0.0000
     0.0000   0.0000   0.0000   0.0000   0.0000   0.0000   0.0000   0.0000

     highest occupied, lowest unoccupied level (ev):    -3.0306    0.2998

!    total energy              =    -923.93128742 Ry
     Harris-Foulkes estimate   =    -923.93128742 Ry
     estimated scf accuracy    <          7.6E-09 Ry

     The total energy is the sum of the following terms:

     one-electron contribution =   -6004.59320588 Ry
     hartree contribution      =    3060.46001482 Ry
     xc contribution           =    -264.86941352 Ry
     ewald contribution        =    2285.07131716 Ry

     total magnetization       =    -0.00 Bohr mag/cell
     absolute magnetization    =     0.00 Bohr mag/cell

     convergence has been achieved in  15 iterations

     Writing output data file BN.save
 
     init_run     :      2.27s CPU      2.74s WALL (       1 calls)
     electrons    :     29.26s CPU     29.66s WALL (       1 calls)

     Called by init_run:
     wfcinit      :      0.51s CPU      0.54s WALL (       1 calls)
     wfcinit:atom :      0.00s CPU      0.01s WALL (       1 calls)
     wfcinit:wfcr :      0.49s CPU      0.51s WALL (       1 calls)
     potinit      :      0.34s CPU      0.34s WALL (       1 calls)

     Called by electrons:
     c_bands      :     22.87s CPU     23.14s WALL (      15 calls)
     sum_band     :      5.18s CPU      5.23s WALL (      15 calls)
     v_of_rho     :      0.75s CPU      0.75s WALL (      16 calls)
     v_h          :      0.03s CPU      0.03s WALL (      16 calls)
     v_xc         :      0.71s CPU      0.72s WALL (      16 calls)
     mix_rho      :      0.22s CPU      0.22s WALL (      15 calls)

     Called by c_bands:
     init_us_2    :      0.21s CPU      0.23s WALL (      31 calls)
     cegterg      :     21.38s CPU     21.64s WALL (      15 calls)

     Called by sum_band:

     Called by *egterg:
     h_psi        :     10.68s CPU     10.78s WALL (      95 calls)
     g_psi        :      0.05s CPU      0.05s WALL (      79 calls)
     cdiaghg      :      6.91s CPU      6.94s WALL (      94 calls)
     cegterg:over :      1.68s CPU      1.69s WALL (      79 calls)
     cegterg:upda :      1.04s CPU      1.05s WALL (      79 calls)
     cegterg:last :      0.40s CPU      0.40s WALL (      16 calls)

     Called by h_psi:
     h_psi:pot    :     10.50s CPU     10.59s WALL (      95 calls)
     h_psi:calbec :      1.59s CPU      1.60s WALL (      95 calls)
     vloc_psi     :      7.44s CPU      7.51s WALL (      95 calls)
     add_vuspsi   :      1.47s CPU      1.48s WALL (      95 calls)

     General routines
     calbec       :      1.59s CPU      1.60s WALL (      95 calls)
     fft          :      0.56s CPU      0.66s WALL (     333 calls)
     fftw         :      7.95s CPU      8.02s WALL (   18062 calls)
 
     Parallel routines
     fft_scatter  :      4.97s CPU      5.02s WALL (   18395 calls)
 
     PWSCF        :    34.30s CPU        36.31s WALL

 
   This run was terminated on:  22:56:57  10Feb2021            

=------------------------------------------------------------------------------=
   JOB DONE.
=------------------------------------------------------------------------------=
