
     Program PWSCF v.6.1 starts on 20Jun2019 at  2:10:42 

     This program is part of the open-source Quantum ESPRESSO suite
     for quantum simulation of materials; please cite
         "P. Giannozzi et al., J. Phys.:Condens. Matter 21 395502 (2009);
          URL http://www.quantum-espresso.org", 
     in publications or presentations arising from this work. More details at
     http://www.quantum-espresso.org/quote

     Parallel version (MPI), running on    56 processors
     R & G space division:  proc/nbgrp/npool/nimage =      56
     Waiting for input...
     Reading input from standard input
Warning: card &CELL ignored
Warning: card / ignored
Warning: card &IONS ignored
Warning: card / ignored

     Current dimensions of program PWSCF are:
     Max number of different atomic species (ntypx) = 10
     Max number of k-points (npk) =  40000
     Max angular momentum in pseudopotentials (lmaxx) =  3

     Atomic positions and unit cell read from directory:
     ./out/bn.save/
 

     Subspace diagonalization in iterative solution of the eigenvalue problem:
     one sub-group per band group will be used
     scalapack distributed-memory algorithm (size of sub-group:  5*  5 procs)

 
     Parallelization info
     --------------------
     sticks:   dense  smooth     PW     G-vecs:    dense   smooth      PW
     Min         716     716    178                40776    40776    5096
     Max         717     717    179                40779    40779    5099
     Sum       40135   40135  10021              2283499  2283499  285439
 


     bravais-lattice index     =            0
     lattice parameter (alat)  =      56.8571  a.u.
     unit-cell volume          =   55992.4523 (a.u.)^3
     number of atoms/cell      =          287
     number of atomic types    =            2
     number of electrons       =      1149.00
     number of Kohn-Sham states=          709
     kinetic-energy cutoff     =      45.0000  Ry
     charge density cutoff     =     180.0000  Ry
     Exchange-correlation      = PBE ( 1  4  3  4 0 0)

     celldm(1)=  56.857062  celldm(2)=   0.000000  celldm(3)=   0.000000
     celldm(4)=   0.000000  celldm(5)=   0.000000  celldm(6)=   0.000000

     crystal axes: (cart. coord. in units of alat)
               a(1) = (   1.000000   0.000000   0.000000 )  
               a(2) = (  -0.500000   0.866025   0.000000 )  
               a(3) = (   0.000000   0.000000   0.351759 )  

     reciprocal axes: (cart. coord. in units 2 pi/alat)
               b(1) = (  1.000000  0.577350  0.000000 )  
               b(2) = (  0.000000  1.154701  0.000000 )  
               b(3) = (  0.000000  0.000000  2.842853 )  


     PseudoPot. # 1 for B  read from file:
     /home/jxuucsc/pseudopotentials/oncv/nofr/B_ONCV_PBE-1.0.upf
     MD5 check sum: 078b8f444dfd791087116085615a5f4c
     Pseudo is Norm-conserving, Zval =  3.0
     Generated using ONCVPSP code by D. R. Hamann
     Using radial grid of  602 points,  4 beta functions with: 
                l(1) =   0
                l(2) =   0
                l(3) =   1
                l(4) =   1

     PseudoPot. # 2 for N  read from file:
     /home/jxuucsc/pseudopotentials/oncv/nofr/N_ONCV_PBE-1.0.upf
     MD5 check sum: e7391ac1e3da9302b4611eea0a09cd4a
     Pseudo is Norm-conserving, Zval =  5.0
     Generated using ONCVPSP code by D. R. Hamann
     Using radial grid of  602 points,  4 beta functions with: 
                l(1) =   0
                l(2) =   0
                l(3) =   1
                l(4) =   1

     atomic species   valence    mass     pseudopotential
        B              3.00    10.81100     B ( 1.00)
        N              5.00    14.00670     N ( 1.00)

     Starting magnetic structure 
     atomic species   magnetization
        B            1.000
        N            0.000

      2 Sym. Ops. (no inversion) found


                                    s                        frac. trans.

      isym =  1     identity                                     

 cryst.   s( 1) = (     1          0          0      )
                  (     0          1          0      )
                  (     0          0          1      )

 cart.    s( 1) = (  1.0000000  0.0000000  0.0000000 )
                  (  0.0000000  1.0000000  0.0000000 )
                  (  0.0000000  0.0000000  1.0000000 )


      isym =  2     inv. 180 deg rotation - cart. axis [0,0,1]   

 cryst.   s( 2) = (     1          0          0      )
                  (     0          1          0      )
                  (     0          0         -1      )

 cart.    s( 2) = (  1.0000000  0.0000000  0.0000000 )
                  (  0.0000000  1.0000000  0.0000000 )
                  (  0.0000000  0.0000000 -1.0000000 )


   Cartesian axes

     site n.     atom                  positions (alat units)
         1           N   tau(   1) = (   0.2094790   0.4069888   0.0000000  )
         2           N   tau(   2) = (   0.1674572   0.4793371   0.0000000  )
         3           N   tau(   3) = (   0.1254864   0.5519633   0.0000000  )
         4           N   tau(   4) = (   0.0834998   0.6246321   0.0000000  )
         5           N   tau(   5) = (   0.0416025   0.6972525   0.0000000  )
         6           N   tau(   6) = (   0.4157764   0.0491566   0.0000000  )
         7           N   tau(   7) = (   0.3738259   0.1218512   0.0000000  )
         8           N   tau(   8) = (   0.3321932   0.1943985   0.0000000  )
         9           N   tau(   9) = (   0.2931621   0.2668859   0.0000000  )
        10           N   tau(  10) = (   0.2527765   0.3368871   0.0000000  )
        11           N   tau(  11) = (   0.2930498   0.4091516   0.0000000  )
        12           N   tau(  12) = (   0.2505306   0.4802488   0.0000000  )
        13           N   tau(  13) = (   0.2085977   0.5523003   0.0000000  )
        14           N   tau(  14) = (   0.1666793   0.6246656   0.0000000  )
        15           N   tau(  15) = (   0.1248261   0.6970910   0.0000000  )
        16           N   tau(  16) = (   0.4993209   0.0485390   0.0000000  )
        17           N   tau(  17) = (   0.4576197   0.1209519   0.0000000  )
        18           N   tau(  18) = (   0.4162120   0.1933226   0.0000000  )
        19           N   tau(  19) = (   0.3759153   0.2656455   0.0000000  )
        20           N   tau(  20) = (   0.3358576   0.3381620   0.0000000  )
        21           N   tau(  21) = (   0.3765029   0.4098465   0.0000000  )
        22           N   tau(  22) = (   0.3341280   0.4813264   0.0000000  )
        23           N   tau(  23) = (   0.2919140   0.5528737   0.0000000  )
        24           N   tau(  24) = (   0.2499470   0.6248728   0.0000000  )
        25           N   tau(  25) = (   0.2080687   0.6970858   0.0000000  )
        26           N   tau(  26) = (   0.5827342   0.0481835   0.0000000  )
        27           N   tau(  27) = (   0.5411221   0.1205319   0.0000000  )
        28           N   tau(  28) = (   0.4997776   0.1928591   0.0000000  )
        29           N   tau(  29) = (   0.4589516   0.2651912   0.0000000  )
        30           N   tau(  30) = (   0.4182298   0.3375676   0.0000000  )
        31           N   tau(  31) = (   0.4595457   0.4096367   0.0000000  )
        32           N   tau(  32) = (   0.4176398   0.4817538   0.0000000  )
        33           N   tau(  33) = (   0.3754563   0.5534507   0.0000000  )
        34           N   tau(  34) = (   0.3333565   0.6251930   0.0000000  )
        35           N   tau(  35) = (   0.2913955   0.6971788   0.0000000  )
        36           N   tau(  36) = (   0.6660570   0.0479456   0.0000000  )
        37           N   tau(  37) = (   0.6244721   0.1202751   0.0000000  )
        38           N   tau(  38) = (   0.5831123   0.1926208   0.0000000  )
        39           N   tau(  39) = (   0.5420437   0.2649608   0.0000000  )
        40           N   tau(  40) = (   0.5010208   0.3373130   0.0000000  )
        41           N   tau(  41) = (   0.5425950   0.4094682   0.0000000  )
        42           N   tau(  42) = (   0.5009215   0.4817060   0.0000000  )
        43           N   tau(  43) = (   0.4589723   0.5537310   0.0000000  )
        44           N   tau(  44) = (   0.4168864   0.6255295   0.0000000  )
        45           N   tau(  45) = (   0.3748519   0.6973590   0.0000000  )
        46           N   tau(  46) = (   0.7493141   0.0477909   0.0000000  )
        47           N   tau(  47) = (   0.7077496   0.1200774   0.0000000  )
        48           N   tau(  48) = (   0.6663928   0.1924446   0.0000000  )
        49           N   tau(  49) = (   0.6251900   0.2648142   0.0000000  )
        50           N   tau(  50) = (   0.5840028   0.3371459   0.0000000  )
        51           N   tau(  51) = (  -0.2077882   0.4089202   0.0000000  )
        52           N   tau(  52) = (  -0.2493514   0.4813150   0.0000000  )
        53           N   tau(  53) = (  -0.2910567   0.5536711   0.0000000  )
        54           N   tau(  54) = (  -0.3328516   0.6259337   0.0000000  )
        55           N   tau(  55) = (  -0.3747362   0.6981218   0.0000000  )
        56           N   tau(  56) = (  -0.0009983   0.0474768   0.0000000  )
        57           N   tau(  57) = (  -0.0429555   0.1195862   0.0000000  )
        58           N   tau(  58) = (  -0.0844358   0.1919579   0.0000000  )
        59           N   tau(  59) = (  -0.1254007   0.2643357   0.0000000  )
        60           N   tau(  60) = (  -0.1664127   0.3366240   0.0000000  )
        61           N   tau(  61) = (  -0.1243525   0.4086166   0.0000000  )
        62           N   tau(  62) = (  -0.1659426   0.4810296   0.0000000  )
        63           N   tau(  63) = (  -0.2077082   0.5535047   0.0000000  )
        64           N   tau(  64) = (  -0.2495382   0.6259024   0.0000000  )
        65           N   tau(  65) = (  -0.2913719   0.6982759   0.0000000  )
        66           N   tau(  66) = (   0.0824260   0.0478655   0.0000000  )
        67           N   tau(  67) = (   0.0400178   0.1192568   0.0000000  )
        68           N   tau(  68) = (  -0.0017487   0.1915712   0.0000000  )
        69           N   tau(  69) = (  -0.0423785   0.2640196   0.0000000  )
        70           N   tau(  70) = (  -0.0829932   0.3363241   0.0000000  )
        71           N   tau(  71) = (  -0.0407336   0.4080713   0.0000000  )
        72           N   tau(  72) = (  -0.0824823   0.4805698   0.0000000  )
        73           N   tau(  73) = (  -0.1243255   0.5531480   0.0000000  )
        74           N   tau(  74) = (  -0.1662370   0.6257095   0.0000000  )
        75           N   tau(  75) = (  -0.2081286   0.6982603   0.0000000  )
        76           N   tau(  76) = (   0.1660440   0.0493162   0.0000000  )
        77           N   tau(  77) = (   0.1233281   0.1199602   0.0000000  )
        78           N   tau(  78) = (   0.0804417   0.1907805   0.0000000  )
        79           N   tau(  79) = (   0.0405360   0.2633069   0.0000000  )
        80           N   tau(  80) = (   0.0007588   0.3356728   0.0000000  )
        81           N   tau(  81) = (   0.0432096   0.4069518   0.0000000  )
        82           N   tau(  82) = (   0.0011016   0.4798215   0.0000000  )
        83           N   tau(  83) = (  -0.0409494   0.5526086   0.0000000  )
        84           N   tau(  84) = (  -0.0829420   0.6253219   0.0000000  )
        85           N   tau(  85) = (  -0.1249185   0.6980232   0.0000000  )
        86           N   tau(  86) = (   0.2490081   0.0504263   0.0000000  )
        87           N   tau(  87) = (   0.2067225   0.1234348   0.0000000  )
        88           N   tau(  88) = (   0.1621534   0.1928868   0.0000000  )
        89           N   tau(  89) = (   0.1231164   0.2604669   0.0000000  )
        90           N   tau(  90) = (   0.1633474   0.2386372   0.0000000  )
        91           N   tau(  91) = (   0.0852793   0.3337971   0.0000000  )
        92           N   tau(  92) = (   0.1272376   0.4052830   0.0000000  )
        93           N   tau(  93) = (   0.0846639   0.4789566   0.0000000  )
        94           N   tau(  94) = (   0.0423912   0.5520088   0.0000000  )
        95           N   tau(  95) = (   0.0003330   0.6248627   0.0000000  )
        96           N   tau(  96) = (  -0.0416663   0.6976006   0.0000000  )
        97           N   tau(  97) = (   0.3321011   0.0503097   0.0000000  )
        98           N   tau(  98) = (   0.2896091   0.1239759   0.0000000  )
        99           N   tau(  99) = (   0.2464293   0.1996733   0.0000000  )
       100           N   tau( 100) = (   0.1711912   0.3300227   0.0000000  )
       101           B   tau( 101) = (   0.2516840   0.3844791   0.0000000  )
       102           B   tau( 102) = (   0.2091070   0.4553923   0.0000000  )
       103           B   tau( 103) = (   0.1671453   0.5277540   0.0000000  )
       104           B   tau( 104) = (   0.1251642   0.6003303   0.0000000  )
       105           B   tau( 105) = (   0.0832531   0.6729283   0.0000000  )
       106           B   tau( 106) = (   0.4575116   0.0247472   0.0000000  )
       107           B   tau( 107) = (   0.4156137   0.0973514   0.0000000  )
       108           B   tau( 108) = (   0.3739383   0.1698920   0.0000000  )
       109           B   tau( 109) = (   0.3338434   0.2421803   0.0000000  )
       110           B   tau( 110) = (   0.2948435   0.3145061   0.0000000  )
       111           B   tau( 111) = (   0.3350519   0.3859283   0.0000000  )
       112           B   tau( 112) = (   0.2926020   0.4570026   0.0000000  )
       113           B   tau( 113) = (   0.2503575   0.5284237   0.0000000  )
       114           B   tau( 114) = (   0.2083864   0.6005539   0.0000000  )
       115           B   tau( 115) = (   0.1664936   0.6728995   0.0000000  )
       116           B   tau( 116) = (   0.5410042   0.0242668   0.0000000  )
       117           B   tau( 117) = (   0.4992984   0.0966899   0.0000000  )
       118           B   tau( 118) = (   0.4578307   0.1690702   0.0000000  )
       119           B   tau( 119) = (   0.4171331   0.2413677   0.0000000  )
       120           B   tau( 120) = (   0.3768119   0.3136124   0.0000000  )
       121           B   tau( 121) = (   0.4180174   0.3856369   0.0000000  )
       122           B   tau( 122) = (   0.3760642   0.4577491   0.0000000  )
       123           B   tau( 123) = (   0.3338422   0.5292841   0.0000000  )
       124           B   tau( 124) = (   0.2917309   0.6009730   0.0000000  )
       125           B   tau( 125) = (   0.2497830   0.6730230   0.0000000  )
       126           B   tau( 126) = (   0.6243775   0.0239626   0.0000000  )
       127           B   tau( 127) = (   0.5827440   0.0963281   0.0000000  )
       128           B   tau( 128) = (   0.5413346   0.1686646   0.0000000  )
       129           B   tau( 129) = (   0.5003299   0.2409686   0.0000000  )
       130           B   tau( 130) = (   0.4594852   0.3132786   0.0000000  )
       131           B   tau( 131) = (   0.5010304   0.3854243   0.0000000  )
       132           B   tau( 132) = (   0.4593181   0.4577008   0.0000000  )
       133           B   tau( 133) = (   0.4173366   0.5297176   0.0000000  )
       134           B   tau( 134) = (   0.3752244   0.6014451   0.0000000  )
       135           B   tau( 135) = (   0.3331868   0.6732616   0.0000000  )
       136           B   tau( 136) = (   0.7076750   0.0237705   0.0000000  )
       137           B   tau( 137) = (   0.6660651   0.0960881   0.0000000  )
       138           B   tau( 138) = (   0.6246646   0.1684289   0.0000000  )
       139           B   tau( 139) = (   0.5835002   0.2407621   0.0000000  )
       140           B   tau( 140) = (   0.5424059   0.3130855   0.0000000  )
       141           B   tau( 141) = (   0.5840929   0.3852736   0.0000000  )
       142           B   tau( 142) = (   0.5425198   0.4575716   0.0000000  )
       143           B   tau( 143) = (   0.5007127   0.5297537   0.0000000  )
       144           B   tau( 144) = (   0.4587302   0.6017265   0.0000000  )
       145           B   tau( 145) = (   0.4166906   0.6735435   0.0000000  )
       146           B   tau( 146) = (   0.7909180   0.0236478   0.0000000  )
       147           B   tau( 147) = (   0.7493080   0.0959147   0.0000000  )
       148           B   tau( 148) = (   0.7079124   0.1682362   0.0000000  )
       149           B   tau( 149) = (   0.6666845   0.2406083   0.0000000  )
       150           B   tau( 150) = (   0.6254687   0.3129495   0.0000000  )
       151           B   tau( 151) = (  -0.1661733   0.3847496   0.0000000  )
       152           B   tau( 152) = (  -0.2077041   0.4570937   0.0000000  )
       153           B   tau( 153) = (  -0.2493892   0.5294900   0.0000000  )
       154           B   tau( 154) = (  -0.2911676   0.6018258   0.0000000  )
       155           B   tau( 155) = (  -0.3329867   0.6741010   0.0000000  )
       156           B   tau( 156) = (   0.0408433   0.0237289   0.0000000  )
       157           B   tau( 157) = (  -0.0014569   0.0953678   0.0000000  )
       158           B   tau( 158) = (  -0.0431813   0.1676268   0.0000000  )
       159           B   tau( 159) = (  -0.0840674   0.2400743   0.0000000  )
       160           B   tau( 160) = (  -0.1248687   0.3124580   0.0000000  )
       161           B   tau( 161) = (  -0.0826928   0.3844149   0.0000000  )
       162           B   tau( 162) = (  -0.1242898   0.4567638   0.0000000  )
       163           B   tau( 163) = (  -0.1660401   0.5292226   0.0000000  )
       164           B   tau( 164) = (  -0.2078716   0.6016860   0.0000000  )
       165           B   tau( 165) = (  -0.2497031   0.6741081   0.0000000  )
       166           B   tau( 166) = (   0.1245343   0.0246294   0.0000000  )
       167           B   tau( 167) = (   0.0818853   0.0956681   0.0000000  )
       168           B   tau( 168) = (   0.0392326   0.1670108   0.0000000  )
       169           B   tau( 169) = (  -0.0012499   0.2396205   0.0000000  )
       170           B   tau( 170) = (  -0.0414145   0.3121077   0.0000000  )
       171           B   tau( 171) = (   0.0010099   0.3837404   0.0000000  )
       172           B   tau( 172) = (  -0.0407791   0.4562095   0.0000000  )
       173           B   tau( 173) = (  -0.0826682   0.5287674   0.0000000  )
       174           B   tau( 174) = (  -0.1245831   0.6013628   0.0000000  )
       175           B   tau( 175) = (  -0.1664895   0.6739504   0.0000000  )
       176           B   tau( 176) = (   0.2078023   0.0255048   0.0000000  )
       177           B   tau( 177) = (   0.1657572   0.0975606   0.0000000  )
       178           B   tau( 178) = (   0.1217469   0.1674667   0.0000000  )
       179           B   tau( 179) = (   0.0808934   0.2381917   0.0000000  )
       180           B   tau( 180) = (   0.0423779   0.3112646   0.0000000  )
       181           B   tau( 181) = (   0.0850555   0.3821711   0.0000000  )
       182           B   tau( 182) = (   0.0428662   0.4552529   0.0000000  )
       183           B   tau( 183) = (   0.0007313   0.5281034   0.0000000  )
       184           B   tau( 184) = (  -0.0412906   0.6008788   0.0000000  )
       185           B   tau( 185) = (  -0.0832717   0.6735948   0.0000000  )
       186           B   tau( 186) = (   0.2906706   0.0259675   0.0000000  )
       187           B   tau( 187) = (   0.2484869   0.0990420   0.0000000  )
       188           B   tau( 188) = (   0.2062907   0.1723315   0.0000000  )
       189           B   tau( 189) = (   0.1274104   0.3089669   0.0000000  )
       190           B   tau( 190) = (   0.1693487   0.3800326   0.0000000  )
       191           B   tau( 191) = (   0.1264407   0.4541710   0.0000000  )
       192           B   tau( 192) = (   0.0841109   0.5274695   0.0000000  )
       193           B   tau( 193) = (   0.0419888   0.6003912   0.0000000  )
       194           B   tau( 194) = (   0.0000029   0.6731739   0.0000000  )
       195           B   tau( 195) = (   0.3738667   0.0255876   0.0000000  )
       196           B   tau( 196) = (   0.3315374   0.0988710   0.0000000  )
       197           B   tau( 197) = (   0.2888031   0.1730797   0.0000000  )
       198           B   tau( 198) = (   0.2479145   0.2505447   0.0000000  )
       199           B   tau( 199) = (   0.2159931   0.3058525   0.0000000  )
       200           N   tau( 200) = (  -0.4167288   0.7701351   0.0000000  )
       201           N   tau( 201) = (  -0.4588274   0.8418202   0.0000000  )
       202           N   tau( 202) = (  -0.3333097   0.7705670   0.0000000  )
       203           N   tau( 203) = (  -0.3752943   0.8425522   0.0000000  )
       204           N   tau( 204) = (  -0.2500436   0.7708036   0.0000000  )
       205           N   tau( 205) = (  -0.2919931   0.8432246   0.0000000  )
       206           N   tau( 206) = (  -0.1668853   0.7707546   0.0000000  )
       207           N   tau( 207) = (  -0.2089141   0.8435400   0.0000000  )
       208           N   tau( 208) = (  -0.0836659   0.7703946   0.0000000  )
       209           N   tau( 209) = (  -0.1257117   0.8432229   0.0000000  )
       210           N   tau( 210) = (  -0.0003342   0.7699106   0.0000000  )
       211           N   tau( 211) = (  -0.0422745   0.8425585   0.0000000  )
       212           N   tau( 212) = (   0.0829882   0.7695853   0.0000000  )
       213           N   tau( 213) = (   0.0411243   0.8421187   0.0000000  )
       214           N   tau( 214) = (   0.1662436   0.7694189   0.0000000  )
       215           N   tau( 215) = (   0.1244664   0.8418252   0.0000000  )
       216           N   tau( 216) = (   0.2495085   0.7693611   0.0000000  )
       217           N   tau( 217) = (   0.2077379   0.8416510   0.0000000  )
       218           N   tau( 218) = (   0.3328620   0.7693742   0.0000000  )
       219           N   tau( 219) = (   0.2910034   0.8415629   0.0000000  )
       220           N   tau( 220) = (   0.8325267   0.0476812   0.0000000  )
       221           N   tau( 221) = (   0.7909380   0.1199448   0.0000000  )
       222           N   tau( 222) = (   0.7495897   0.1922894   0.0000000  )
       223           N   tau( 223) = (   0.7083714   0.2646722   0.0000000  )
       224           N   tau( 224) = (   0.6671115   0.3369993   0.0000000  )
       225           N   tau( 225) = (   0.6256971   0.4093196   0.0000000  )
       226           N   tau( 226) = (   0.5841234   0.4816006   0.0000000  )
       227           N   tau( 227) = (   0.5423431   0.5537624   0.0000000  )
       228           N   tau( 228) = (   0.5003841   0.6257598   0.0000000  )
       229           N   tau( 229) = (   0.4583590   0.6976128   0.0000000  )
       230           N   tau( 230) = (   0.4163307   0.7694858   0.0000000  )
       231           N   tau( 231) = (   0.3743388   0.8415263   0.0000000  )
       232           N   tau( 232) = (   0.9157488   0.0475791   0.0000000  )
       233           N   tau( 233) = (   0.8740247   0.1198055   0.0000000  )
       234           N   tau( 234) = (   0.8326563   0.1921545   0.0000000  )
       235           N   tau( 235) = (   0.7915106   0.2645148   0.0000000  )
       236           N   tau( 236) = (   0.7503066   0.3368315   0.0000000  )
       237           N   tau( 237) = (   0.7088893   0.4091517   0.0000000  )
       238           N   tau( 238) = (   0.6673384   0.4814865   0.0000000  )
       239           N   tau( 239) = (   0.6256452   0.5537390   0.0000000  )
       240           N   tau( 240) = (   0.5837904   0.6258736   0.0000000  )
       241           N   tau( 241) = (   0.5418348   0.6978799   0.0000000  )
       242           N   tau( 242) = (   0.4997968   0.7697192   0.0000000  )
       243           N   tau( 243) = (   0.4577343   0.8415619   0.0000000  )
       244           B   tau( 244) = (  -0.3748983   0.7462731   0.0000000  )
       245           B   tau( 245) = (  -0.4168943   0.8182085   0.0000000  )
       246           B   tau( 246) = (  -0.2915758   0.7465045   0.0000000  )
       247           B   tau( 247) = (  -0.3334748   0.8187500   0.0000000  )
       248           B   tau( 248) = (  -0.2083976   0.7465359   0.0000000  )
       249           B   tau( 249) = (  -0.2503164   0.8190943   0.0000000  )
       250           B   tau( 250) = (  -0.1252480   0.7463293   0.0000000  )
       251           B   tau( 251) = (  -0.1672637   0.8191017   0.0000000  )
       252           B   tau( 252) = (  -0.0419938   0.7459199   0.0000000  )
       253           B   tau( 253) = (  -0.0840112   0.8187106   0.0000000  )
       254           B   tau( 254) = (   0.0413423   0.7455371   0.0000000  )
       255           B   tau( 255) = (  -0.0005799   0.8181678   0.0000000  )
       256           B   tau( 256) = (   0.1246351   0.7453233   0.0000000  )
       257           B   tau( 257) = (   0.0827955   0.8178136   0.0000000  )
       258           B   tau( 258) = (   0.2079029   0.7452609   0.0000000  )
       259           B   tau( 259) = (   0.1661029   0.8176027   0.0000000  )
       260           B   tau( 260) = (   0.2912229   0.7452966   0.0000000  )
       261           B   tau( 261) = (   0.2493831   0.8175029   0.0000000  )
       262           B   tau( 262) = (   0.3746543   0.7454264   0.0000000  )
       263           B   tau( 263) = (   0.3326978   0.8174786   0.0000000  )
       264           B   tau( 264) = (   0.8741510   0.0235661   0.0000000  )
       265           B   tau( 265) = (   0.8324530   0.0957706   0.0000000  )
       266           B   tau( 266) = (   0.7910502   0.1680800   0.0000000  )
       267           B   tau( 267) = (   0.7498426   0.2404524   0.0000000  )
       268           B   tau( 268) = (   0.7086218   0.3128139   0.0000000  )
       269           B   tau( 269) = (   0.6672369   0.3851353   0.0000000  )
       270           B   tau( 270) = (   0.6257126   0.4574481   0.0000000  )
       271           B   tau( 271) = (   0.5840206   0.5297004   0.0000000  )
       272           B   tau( 272) = (   0.5421533   0.6018226   0.0000000  )
       273           B   tau( 273) = (   0.5001923   0.6737932   0.0000000  )
       274           B   tau( 274) = (   0.4581464   0.7456348   0.0000000  )
       275           B   tau( 275) = (   0.4160876   0.8175291   0.0000000  )
       276           B   tau( 276) = (   0.9574143   0.0235156   0.0000000  )
       277           B   tau( 277) = (   0.9155205   0.0956091   0.0000000  )
       278           B   tau( 278) = (   0.8740345   0.1679075   0.0000000  )
       279           B   tau( 279) = (   0.8329370   0.2402998   0.0000000  )
       280           B   tau( 280) = (   0.7918345   0.3126549   0.0000000  )
       281           B   tau( 281) = (   0.7504745   0.3849704   0.0000000  )
       282           B   tau( 282) = (   0.7089578   0.4573088   0.0000000  )
       283           B   tau( 283) = (   0.6673021   0.5296240   0.0000000  )
       284           B   tau( 284) = (   0.6255150   0.6018548   0.0000000  )
       285           B   tau( 285) = (   0.5836332   0.6739749   0.0000000  )
       286           B   tau( 286) = (   0.5416495   0.7459408   0.0000000  )
       287           B   tau( 287) = (   0.4995470   0.8177191   0.0000000  )

   Crystallographic axes

     site n.     atom                  positions (cryst. coord.)
         1           N   tau(   1) = (  0.4444541  0.4699502  0.0000000  )
         2           N   tau(   2) = (  0.4442026  0.5534908  0.0000000  )
         3           N   tau(   3) = (  0.4441626  0.6373524  0.0000000  )
         4           N   tau(   4) = (  0.4441313  0.7212630  0.0000000  )
         5           N   tau(   5) = (  0.4441615  0.8051178  0.0000000  )
         6           N   tau(   6) = (  0.4441570  0.0567612  0.0000000  )
         7           N   tau(   7) = (  0.4441768  0.1407017  0.0000000  )
         8           N   tau(   8) = (  0.4444292  0.2244721  0.0000000  )
         9           N   tau(   9) = (  0.4472488  0.3081733  0.0000000  )
        10           N   tau(  10) = (  0.4472784  0.3890037  0.0000000  )
        11           N   tau(  11) = (  0.5292736  0.4724476  0.0000000  )
        12           N   tau(  12) = (  0.5278024  0.5545436  0.0000000  )
        13           N   tau(  13) = (  0.5274684  0.6377414  0.0000000  )
        14           N   tau(  14) = (  0.5273301  0.7213017  0.0000000  )
        15           N   tau(  15) = (  0.5272917  0.8049313  0.0000000  )
        16           N   tau(  16) = (  0.5273449  0.0560481  0.0000000  )
        17           N   tau(  17) = (  0.5274514  0.1396633  0.0000000  )
        18           N   tau(  18) = (  0.5278269  0.2232298  0.0000000  )
        19           N   tau(  19) = (  0.5292858  0.3067410  0.0000000  )
        20           N   tau(  20) = (  0.5310956  0.3904759  0.0000000  )
        21           N   tau(  21) = (  0.6131279  0.4732500  0.0000000  )
        22           N   tau(  22) = (  0.6120219  0.5557879  0.0000000  )
        23           N   tau(  23) = (  0.6111158  0.6384036  0.0000000  )
        24           N   tau(  24) = (  0.6107174  0.7215409  0.0000000  )
        25           N   tau(  25) = (  0.6105313  0.8049253  0.0000000  )
        26           N   tau(  26) = (  0.6105530  0.0556375  0.0000000  )
        27           N   tau(  27) = (  0.6107112  0.1391782  0.0000000  )
        28           N   tau(  28) = (  0.6111249  0.2226946  0.0000000  )
        29           N   tau(  29) = (  0.6120598  0.3062164  0.0000000  )
        30           N   tau(  30) = (  0.6131246  0.3897895  0.0000000  )
        31           N   tau(  31) = (  0.6960496  0.4730078  0.0000000  )
        32           N   tau(  32) = (  0.6957805  0.5562814  0.0000000  )
        33           N   tau(  33) = (  0.6949912  0.6390698  0.0000000  )
        34           N   tau(  34) = (  0.6943119  0.7219107  0.0000000  )
        35           N   tau(  35) = (  0.6939118  0.8050327  0.0000000  )
        36           N   tau(  36) = (  0.6937384  0.0553628  0.0000000  )
        37           N   tau(  37) = (  0.6939130  0.1388818  0.0000000  )
        38           N   tau(  38) = (  0.6943219  0.2224193  0.0000000  )
        39           N   tau(  39) = (  0.6950189  0.3059503  0.0000000  )
        40           N   tau(  40) = (  0.6957685  0.3894955  0.0000000  )
        41           N   tau(  41) = (  0.7790016  0.4728131  0.0000000  )
        42           N   tau(  42) = (  0.7790346  0.5562262  0.0000000  )
        43           N   tau(  43) = (  0.7786691  0.6393935  0.0000000  )
        44           N   tau(  44) = (  0.7780360  0.7222992  0.0000000  )
        45           N   tau(  45) = (  0.7774723  0.8052408  0.0000000  )
        46           N   tau(  46) = (  0.7769062  0.0551841  0.0000000  )
        47           N   tau(  47) = (  0.7770764  0.1386535  0.0000000  )
        48           N   tau(  48) = (  0.7775007  0.2222159  0.0000000  )
        49           N   tau(  49) = (  0.7780805  0.3057810  0.0000000  )
        50           N   tau(  50) = (  0.7786541  0.3893025  0.0000000  )
        51           N   tau(  51) = (  0.0283020  0.4721803  0.0000000  )
        52           N   tau(  52) = (  0.0285360  0.5557747  0.0000000  )
        53           N   tau(  53) = (  0.0286055  0.6393243  0.0000000  )
        54           N   tau(  54) = (  0.0285314  0.7227660  0.0000000  )
        55           N   tau(  55) = (  0.0283246  0.8061216  0.0000000  )
        56           N   tau(  56) = (  0.0264124  0.0548215  0.0000000  )
        57           N   tau(  57) = (  0.0260876  0.1380862  0.0000000  )
        58           N   tau(  58) = (  0.0263911  0.2216539  0.0000000  )
        59           N   tau(  59) = (  0.0272136  0.3052286  0.0000000  )
        60           N   tau(  60) = (  0.0279373  0.3887000  0.0000000  )
        61           N   tau(  61) = (  0.1115623  0.4718298  0.0000000  )
        62           N   tau(  62) = (  0.1117799  0.5554451  0.0000000  )
        63           N   tau(  63) = (  0.1118579  0.6391321  0.0000000  )
        64           N   tau(  64) = (  0.1118268  0.7227299  0.0000000  )
        65           N   tau(  65) = (  0.1117779  0.8062996  0.0000000  )
        66           N   tau(  66) = (  0.1100611  0.0552703  0.0000000  )
        67           N   tau(  67) = (  0.1088707  0.1377059  0.0000000  )
        68           N   tau(  68) = (  0.1088550  0.2212074  0.0000000  )
        69           N   tau(  69) = (  0.1100533  0.3048636  0.0000000  )
        70           N   tau(  70) = (  0.1111837  0.3883536  0.0000000  )
        71           N   tau(  71) = (  0.1948665  0.4712001  0.0000000  )
        72           N   tau(  72) = (  0.1949748  0.5549143  0.0000000  )
        73           N   tau(  73) = (  0.1950346  0.6387204  0.0000000  )
        74           N   tau(  74) = (  0.1950166  0.7225071  0.0000000  )
        75           N   tau(  75) = (  0.1950122  0.8062816  0.0000000  )
        76           N   tau(  76) = (  0.1945167  0.0569454  0.0000000  )
        77           N   tau(  77) = (  0.1925872  0.1385181  0.0000000  )
        78           N   tau(  78) = (  0.1905889  0.2202944  0.0000000  )
        79           N   tau(  79) = (  0.1925563  0.3040406  0.0000000  )
        80           N   tau(  80) = (  0.1945595  0.3876016  0.0000000  )
        81           N   tau(  81) = (  0.2781633  0.4699074  0.0000000  )
        82           N   tau(  82) = (  0.2781267  0.5540501  0.0000000  )
        83           N   tau(  83) = (  0.2780993  0.6380974  0.0000000  )
        84           N   tau(  84) = (  0.2780878  0.7220596  0.0000000  )
        85           N   tau(  85) = (  0.2780854  0.8060077  0.0000000  )
        86           N   tau(  86) = (  0.2781218  0.0582273  0.0000000  )
        87           N   tau(  87) = (  0.2779877  0.1425302  0.0000000  )
        88           N   tau(  88) = (  0.2735167  0.2227265  0.0000000  )
        89           N   tau(  89) = (  0.2734971  0.3007613  0.0000000  )
        90           N   tau(  90) = (  0.3011246  0.2755545  0.0000000  )
        91           N   tau(  91) = (  0.2779971  0.3854357  0.0000000  )
        92           N   tau(  92) = (  0.3612278  0.4679805  0.0000000  )
        93           N   tau(  93) = (  0.3611897  0.5530515  0.0000000  )
        94           N   tau(  94) = (  0.3610936  0.6374048  0.0000000  )
        95           N   tau(  95) = (  0.3610976  0.7215293  0.0000000  )
        96           N   tau(  96) = (  0.3610936  0.8055198  0.0000000  )
        97           N   tau(  97) = (  0.3611474  0.0580926  0.0000000  )
        98           N   tau(  98) = (  0.3611867  0.1431551  0.0000000  )
        99           N   tau(  99) = (  0.3617108  0.2305629  0.0000000  )
       100           N   tau( 100) = (  0.3617299  0.3810774  0.0000000  )
       101           B   tau( 101) = (  0.4736631  0.4439583  0.0000000  )
       102           B   tau( 102) = (  0.4720279  0.5258418  0.0000000  )
       103           B   tau( 103) = (  0.4718442  0.6093978  0.0000000  )
       104           B   tau( 104) = (  0.4717651  0.6932017  0.0000000  )
       105           B   tau( 105) = (  0.4717685  0.7770307  0.0000000  )
       106           B   tau( 106) = (  0.4717994  0.0285756  0.0000000  )
       107           B   tau( 107) = (  0.4718195  0.1124118  0.0000000  )
       108           B   tau( 108) = (  0.4720254  0.1961744  0.0000000  )
       109           B   tau( 109) = (  0.4736663  0.2796458  0.0000000  )
       110           B   tau( 110) = (  0.4764237  0.3631603  0.0000000  )
       111           B   tau( 111) = (  0.5578677  0.4456316  0.0000000  )
       112           B   tau( 112) = (  0.5564526  0.5277012  0.0000000  )
       113           B   tau( 113) = (  0.5554430  0.6101711  0.0000000  )
       114           B   tau( 114) = (  0.5551164  0.6934599  0.0000000  )
       115           B   tau( 115) = (  0.5549923  0.7769974  0.0000000  )
       116           B   tau( 116) = (  0.5550146  0.0280209  0.0000000  )
       117           B   tau( 117) = (  0.5551223  0.1116479  0.0000000  )
       118           B   tau( 118) = (  0.5554435  0.1952255  0.0000000  )
       119           B   tau( 119) = (  0.5564868  0.2787074  0.0000000  )
       120           B   tau( 120) = (  0.5578761  0.3621285  0.0000000  )
       121           B   tau( 121) = (  0.6406650  0.4452951  0.0000000  )
       122           B   tau( 122) = (  0.6403458  0.5285632  0.0000000  )
       123           B   tau( 123) = (  0.6394245  0.6111646  0.0000000  )
       124           B   tau( 124) = (  0.6387028  0.6939438  0.0000000  )
       125           B   tau( 125) = (  0.6383530  0.7771400  0.0000000  )
       126           B   tau( 126) = (  0.6382123  0.0276696  0.0000000  )
       127           B   tau( 127) = (  0.6383590  0.1112301  0.0000000  )
       128           B   tau( 128) = (  0.6387132  0.1947571  0.0000000  )
       129           B   tau( 129) = (  0.6394532  0.2782466  0.0000000  )
       130           B   tau( 130) = (  0.6403567  0.3617429  0.0000000  )
       131           B   tau( 131) = (  0.7235552  0.4450496  0.0000000  )
       132           B   tau( 132) = (  0.7235718  0.5285073  0.0000000  )
       133           B   tau( 133) = (  0.7231692  0.6116652  0.0000000  )
       134           B   tau( 134) = (  0.7224689  0.6944890  0.0000000  )
       135           B   tau( 135) = (  0.7218945  0.7774155  0.0000000  )
       136           B   tau( 136) = (  0.7213989  0.0274478  0.0000000  )
       137           B   tau( 137) = (  0.7215416  0.1109529  0.0000000  )
       138           B   tau( 138) = (  0.7219071  0.1944850  0.0000000  )
       139           B   tau( 139) = (  0.7225042  0.2780081  0.0000000  )
       140           B   tau( 140) = (  0.7231659  0.3615200  0.0000000  )
       141           B   tau( 141) = (  0.8065307  0.4448756  0.0000000  )
       142           B   tau( 142) = (  0.8066989  0.5283582  0.0000000  )
       143           B   tau( 143) = (  0.8065662  0.6117069  0.0000000  )
       144           B   tau( 144) = (  0.8061372  0.6948139  0.0000000  )
       145           B   tau( 145) = (  0.8055611  0.7777411  0.0000000  )
       146           B   tau( 146) = (  0.8045710  0.0273061  0.0000000  )
       147           B   tau( 147) = (  0.8046844  0.1107528  0.0000000  )
       148           B   tau( 148) = (  0.8050436  0.1942624  0.0000000  )
       149           B   tau( 149) = (  0.8055998  0.2778305  0.0000000  )
       150           B   tau( 150) = (  0.8061502  0.3613630  0.0000000  )
       151           B   tau( 151) = (  0.0559620  0.4442706  0.0000000  )
       152           B   tau( 152) = (  0.0561990  0.5278063  0.0000000  )
       153           B   tau( 153) = (  0.0563120  0.6114024  0.0000000  )
       154           B   tau( 154) = (  0.0562967  0.6949286  0.0000000  )
       155           B   tau( 155) = (  0.0562057  0.7783848  0.0000000  )
       156           B   tau( 156) = (  0.0545432  0.0273998  0.0000000  )
       157           B   tau( 157) = (  0.0536037  0.1101213  0.0000000  )
       158           B   tau( 158) = (  0.0535980  0.1935587  0.0000000  )
       159           B   tau( 159) = (  0.0545396  0.2772139  0.0000000  )
       160           B   tau( 160) = (  0.0555290  0.3607955  0.0000000  )
       161           B   tau( 161) = (  0.1392492  0.4438841  0.0000000  )
       162           B   tau( 162) = (  0.1394228  0.5274254  0.0000000  )
       163           B   tau( 163) = (  0.1395067  0.6110936  0.0000000  )
       164           B   tau( 164) = (  0.1395120  0.6947672  0.0000000  )
       165           B   tau( 165) = (  0.1394934  0.7783930  0.0000000  )
       166           B   tau( 166) = (  0.1387541  0.0284395  0.0000000  )
       167           B   tau( 167) = (  0.1371193  0.1104680  0.0000000  )
       168           B   tau( 168) = (  0.1356564  0.1928475  0.0000000  )
       169           B   tau( 169) = (  0.1370951  0.2766899  0.0000000  )
       170           B   tau( 170) = (  0.1387810  0.3603909  0.0000000  )
       171           B   tau( 171) = (  0.2225625  0.4431053  0.0000000  )
       172           B   tau( 172) = (  0.2226136  0.5267853  0.0000000  )
       173           B   tau( 173) = (  0.2226158  0.6105680  0.0000000  )
       174           B   tau( 174) = (  0.2226139  0.6943940  0.0000000  )
       175           B   tau( 175) = (  0.2226160  0.7782109  0.0000000  )
       176           B   tau( 176) = (  0.2225275  0.0294504  0.0000000  )
       177           B   tau( 177) = (  0.2220839  0.1126532  0.0000000  )
       178           B   tau( 178) = (  0.2184338  0.1933738  0.0000000  )
       179           B   tau( 179) = (  0.2184134  0.2750401  0.0000000  )
       180           B   tau( 180) = (  0.2220866  0.3594174  0.0000000  )
       181           B   tau( 181) = (  0.3057021  0.4412932  0.0000000  )
       182           B   tau( 182) = (  0.3057067  0.5256808  0.0000000  )
       183           B   tau( 183) = (  0.3056319  0.6098012  0.0000000  )
       184           B   tau( 184) = (  0.3056270  0.6938351  0.0000000  )
       185           B   tau( 185) = (  0.3056284  0.7778003  0.0000000  )
       186           B   tau( 186) = (  0.3056629  0.0299847  0.0000000  )
       187           B   tau( 187) = (  0.3056688  0.1143638  0.0000000  )
       188           B   tau( 188) = (  0.3057863  0.1989912  0.0000000  )
       189           B   tau( 189) = (  0.3057925  0.3567642  0.0000000  )
       190           B   tau( 190) = (  0.3887607  0.4388239  0.0000000  )
       191           B   tau( 191) = (  0.3886565  0.5244315  0.0000000  )
       192           B   tau( 192) = (  0.3886456  0.6090693  0.0000000  )
       193           B   tau( 193) = (  0.3886248  0.6932720  0.0000000  )
       194           B   tau( 194) = (  0.3886601  0.7773143  0.0000000  )
       195           B   tau( 195) = (  0.3886397  0.0295460  0.0000000  )
       196           B   tau( 196) = (  0.3886207  0.1141664  0.0000000  )
       197           B   tau( 197) = (  0.3887307  0.1998553  0.0000000  )
       198           B   tau( 198) = (  0.3925666  0.2893041  0.0000000  )
       199           B   tau( 199) = (  0.3925772  0.3531681  0.0000000  )
       200           N   tau( 200) = (  0.0279089  0.8892754  0.0000000  )
       201           N   tau( 201) = (  0.0271977  0.9720502  0.0000000  )
       202           N   tau( 202) = (  0.1115774  0.8897742  0.0000000  )
       203           N   tau( 203) = (  0.1111534  0.9728955  0.0000000  )
       204           N   tau( 204) = (  0.1949801  0.8900473  0.0000000  )
       205           N   tau( 205) = (  0.1948429  0.9736719  0.0000000  )
       206           N   tau( 206) = (  0.2781101  0.8899908  0.0000000  )
       207           N   tau( 207) = (  0.2781039  0.9740361  0.0000000  )
       208           N   tau( 208) = (  0.3611217  0.8895751  0.0000000  )
       209           N   tau( 209) = (  0.3611233  0.9736699  0.0000000  )
       210           N   tau( 210) = (  0.4441738  0.8890161  0.0000000  )
       211           N   tau( 211) = (  0.4441769  0.9729028  0.0000000  )
       212           N   tau( 212) = (  0.5273085  0.8886406  0.0000000  )
       213           N   tau( 213) = (  0.5273218  0.9723949  0.0000000  )
       214           N   tau( 214) = (  0.6104678  0.8884484  0.0000000  )
       215           N   tau( 215) = (  0.6104944  0.9720560  0.0000000  )
       216           N   tau( 216) = (  0.6936993  0.8883817  0.0000000  )
       217           N   tau( 217) = (  0.6936653  0.9718549  0.0000000  )
       218           N   tau( 218) = (  0.7770604  0.8883969  0.0000000  )
       219           N   tau( 219) = (  0.7768800  0.9717532  0.0000000  )
       220           N   tau( 220) = (  0.8600555  0.0550575  0.0000000  )
       221           N   tau( 221) = (  0.8601882  0.1385003  0.0000000  )
       222           N   tau( 222) = (  0.8606081  0.2220367  0.0000000  )
       223           N   tau( 223) = (  0.8611800  0.3056172  0.0000000  )
       224           N   tau( 224) = (  0.8616781  0.3891333  0.0000000  )
       225           N   tau( 225) = (  0.8620179  0.4726415  0.0000000  )
       226           N   tau( 226) = (  0.8621756  0.5561044  0.0000000  )
       227           N   tau( 227) = (  0.8620580  0.6394298  0.0000000  )
       228           N   tau( 228) = (  0.8616667  0.7225652  0.0000000  )
       229           N   tau( 229) = (  0.8611260  0.8055339  0.0000000  )
       230           N   tau( 230) = (  0.8605935  0.8885256  0.0000000  )
       231           N   tau( 231) = (  0.8601942  0.9717108  0.0000000  )
       232           N   tau( 232) = (  0.9432186  0.0549396  0.0000000  )
       233           N   tau( 233) = (  0.9431944  0.1383395  0.0000000  )
       234           N   tau( 234) = (  0.9435968  0.2218809  0.0000000  )
       235           N   tau( 235) = (  0.9442282  0.3054353  0.0000000  )
       236           N   tau( 236) = (  0.9447763  0.3889395  0.0000000  )
       237           N   tau( 237) = (  0.9451132  0.4724477  0.0000000  )
       238           N   tau( 238) = (  0.9453248  0.5559727  0.0000000  )
       239           N   tau( 239) = (  0.9453465  0.6394027  0.0000000  )
       240           N   tau( 240) = (  0.9451387  0.7226966  0.0000000  )
       241           N   tau( 241) = (  0.9447559  0.8058423  0.0000000  )
       242           N   tau( 242) = (  0.9441943  0.8887951  0.0000000  )
       243           N   tau( 243) = (  0.9436103  0.9717520  0.0000000  )
       244           B   tau( 244) = (  0.0559626  0.8617219  0.0000000  )
       245           B   tau( 245) = (  0.0554987  0.9447858  0.0000000  )
       246           B   tau( 246) = (  0.1394188  0.8619892  0.0000000  )
       247           B   tau( 247) = (  0.1392307  0.9454111  0.0000000  )
       248           B   tau( 248) = (  0.2226151  0.8620254  0.0000000  )
       249           B   tau( 249) = (  0.2225880  0.9458086  0.0000000  )
       250           B   tau( 250) = (  0.3056454  0.8617869  0.0000000  )
       251           B   tau( 251) = (  0.3056449  0.9458172  0.0000000  )
       252           B   tau( 252) = (  0.3886633  0.8613141  0.0000000  )
       253           B   tau( 253) = (  0.3886716  0.9453656  0.0000000  )
       254           B   tau( 254) = (  0.4717783  0.8608721  0.0000000  )
       255           B   tau( 255) = (  0.4717896  0.9447388  0.0000000  )
       256           B   tau( 256) = (  0.5549477  0.8606252  0.0000000  )
       257           B   tau( 257) = (  0.5549604  0.9443298  0.0000000  )
       258           B   tau( 258) = (  0.6381795  0.8605532  0.0000000  )
       259           B   tau( 259) = (  0.6381460  0.9440862  0.0000000  )
       260           B   tau( 260) = (  0.7215201  0.8605944  0.0000000  )
       261           B   tau( 261) = (  0.7213686  0.9439711  0.0000000  )
       262           B   tau( 262) = (  0.8050264  0.8607442  0.0000000  )
       263           B   tau( 263) = (  0.8046693  0.9439430  0.0000000  )
       264           B   tau( 264) = (  0.8877568  0.0272118  0.0000000  )
       265           B   tau( 265) = (  0.8877462  0.1105864  0.0000000  )
       266           B   tau( 266) = (  0.8880912  0.1940820  0.0000000  )
       267           B   tau( 267) = (  0.8886679  0.2776505  0.0000000  )
       268           B   tau( 268) = (  0.8892250  0.3612064  0.0000000  )
       269           B   tau( 269) = (  0.8895949  0.4447160  0.0000000  )
       270           B   tau( 270) = (  0.8898204  0.5282155  0.0000000  )
       271           B   tau( 271) = (  0.8898432  0.6116454  0.0000000  )
       272           B   tau( 272) = (  0.8896157  0.6949249  0.0000000  )
       273           B   tau( 273) = (  0.8892070  0.7780294  0.0000000  )
       274           B   tau( 274) = (  0.8886389  0.8609849  0.0000000  )
       275           B   tau( 275) = (  0.8880883  0.9440013  0.0000000  )
       276           B   tau( 276) = (  0.9709910  0.0271534  0.0000000  )
       277           B   tau( 277) = (  0.9707204  0.1103998  0.0000000  )
       278           B   tau( 278) = (  0.9709760  0.1938829  0.0000000  )
       279           B   tau( 279) = (  0.9716742  0.2774743  0.0000000  )
       280           B   tau( 280) = (  0.9723458  0.3610227  0.0000000  )
       281           B   tau( 281) = (  0.9727373  0.4445256  0.0000000  )
       282           B   tau( 282) = (  0.9729851  0.5280547  0.0000000  )
       283           B   tau( 283) = (  0.9730806  0.6115571  0.0000000  )
       284           B   tau( 284) = (  0.9729960  0.6949620  0.0000000  )
       285           B   tau( 285) = (  0.9727528  0.7782391  0.0000000  )
       286           B   tau( 286) = (  0.9723186  0.8613382  0.0000000  )
       287           B   tau( 287) = (  0.9716574  0.9442207  0.0000000  )

     number of k points=     1  Marzari-Vanderbilt smearing, width (Ry)=  0.0010
                       cart. coord. in units 2pi/alat
        k(    1) = (   0.0000000   0.0000000   0.0000000), wk =   1.0000000

                       cryst. coord.
        k(    1) = (   0.0000000   0.0000000   0.0000000), wk =   1.0000000

     Dense  grid:  2283499 G-vectors     FFT dimensions: ( 243, 243,  90)

     Estimated max dynamical RAM per process >     507.90MB

     Estimated total allocated dynamical RAM >   28442.19MB
     Generating pointlists ...
     new r_m :   0.0195 (alat units)  1.1105 (a.u.) for type    1
     new r_m :   0.0189 (alat units)  1.0734 (a.u.) for type    2

     The potential is recalculated from file :
     ./out/bn.save/charge-density.dat

     Starting wfc are random

     Band Structure Calculation
     Davidson diagonalization with overlap

     Computing kpt #:     1
     c_bands:  3 eigenvalues not converged
     total cpu time spent up to now is      763.9 secs

     Computing kpt #:     2
     c_bands:  3 eigenvalues not converged
     total cpu time spent up to now is     1540.8 secs

     ethr =  8.70E-13,  avg # of iterations =120.0

     total cpu time spent up to now is     1540.8 secs

     End of band structure calculation

 ------ SPIN UP ------------


          k = 0.0000 0.0000 0.0000 (285439 PWs)   bands (ev):

   -22.7119 -20.2414 -20.1467 -20.1246 -20.1085 -20.0927 -20.0829 -20.0254
   -19.8808 -19.8635 -19.8460 -19.8417 -19.8222 -19.7843 -19.7471 -19.7285
   -19.7082 -19.7024 -19.7017 -19.5603 -19.4536 -19.3703 -19.3632 -19.3478
   -19.3420 -19.3349 -19.3321 -19.3274 -19.3214 -19.3004 -19.2975 -19.1734
   -19.1588 -19.1109 -19.0885 -19.0853 -19.0652 -18.8979 -18.8859 -18.7613
   -18.7490 -18.7261 -18.7221 -18.7055 -18.6972 -18.6636 -18.6523 -18.6434
   -18.6344 -18.6318 -18.6263 -18.6152 -18.6106 -18.5879 -18.5520 -18.4085
   -18.3794 -18.3352 -18.3107 -18.3077 -18.2689 -18.1724 -18.1256 -18.0381
   -18.0236 -18.0060 -18.0050 -17.9999 -17.9965 -17.9868 -17.9828 -17.9602
   -17.9414 -17.9213 -17.8900 -17.8731 -17.8533 -17.8483 -17.8408 -17.8394
   -17.8339 -17.8152 -17.8046 -17.7992 -17.7288 -17.6402 -17.5835 -17.5726
   -17.5527 -17.5502 -17.4906 -17.4554 -17.3973 -17.3511 -17.3303 -17.3277
   -17.3148 -17.3062 -17.3053 -17.3013 -17.2989 -17.2931 -17.2905 -17.2861
   -17.2826 -17.2752 -17.2732 -17.2647 -17.2475 -17.2447 -17.2435 -17.2400
   -17.2365 -17.2356 -17.2294 -17.2219 -17.2210 -17.2167 -17.2098 -17.1913
   -17.1747 -17.1620 -17.1360 -17.0241 -16.9945 -16.9785 -16.9549 -16.9467
   -16.9301 -16.8829 -16.8674 -16.8380 -16.8292 -16.8259 -16.8208 -16.8198
   -16.8130 -16.8126 -16.7948 -16.7899 -16.7082 -16.6420 -16.5823 -14.0874
   -11.5106 -11.4599 -11.4174 -11.3591 -11.3456 -11.2490 -11.2323 -11.2245
   -11.2217 -11.2068 -11.2061 -11.1963 -11.1931 -11.1817 -11.1600 -11.1490
   -11.1318 -11.1289 -11.1095 -11.0903 -11.0552 -10.9797 -10.9332 -10.8712
   -10.8524 -10.8384 -10.8277 -10.8034 -10.7636 -10.7263 -10.6966 -10.6906
   -10.6886 -10.6851 -10.6830 -10.6779 -10.6737 -10.6652 -10.6595 -10.6422
   -10.6401 -10.6295 -10.6263 -10.6184 -10.6174 -10.6064 -10.6027 -10.6000
   -10.5747 -10.5093 -10.4936 -10.4590 -10.4313 -10.2823 -10.2820 -10.2049
   -10.2009 -10.1890 -10.1856 -10.1838 -10.1711 -10.1697 -10.1681 -10.1554
   -10.1516 -10.1511 -10.1359 -10.1326 -10.1159 -10.0165  -9.8610  -9.7216
    -9.6982  -9.6189  -9.5578  -9.4732  -9.4640  -9.4563  -9.4556  -9.4527
    -9.4464  -9.4449  -9.4393  -9.4360  -9.4284  -9.4234  -9.4093  -9.4056
    -9.3939  -9.3200  -9.1612  -9.1603  -9.0790  -9.0628  -9.0557  -9.0534
    -9.0532  -9.0447  -9.0406  -9.0344  -8.9936  -8.9723  -8.8470  -8.7215
    -8.6679  -8.6065  -8.6050  -8.5939  -8.5895  -8.5851  -8.5700  -8.5678
    -8.5547  -8.5485  -8.5026  -8.4711  -8.4483  -8.4407  -8.4086  -8.3773
    -8.2448  -8.2301  -8.1444  -8.1144  -8.0820  -8.0782  -8.0728  -8.0713
    -8.0598  -8.0474  -8.0433  -8.0076  -7.9899  -7.9730  -7.9341  -7.9141
    -7.9097  -7.8884  -7.8852  -7.8851  -7.8769  -7.8657  -7.8535  -7.7922
    -7.7885  -7.7477  -7.7394  -7.7062  -7.6899  -7.6519  -7.6229  -7.6060
    -7.5984  -7.5960  -7.5793  -7.5666  -7.5549  -7.5137  -7.4223  -7.4082
    -7.3855  -7.3811  -7.3780  -7.3680  -7.3660  -7.3569  -7.3532  -7.3223
    -7.3004  -7.2732  -7.2455  -7.2372  -7.2210  -7.2096  -7.1993  -7.1989
    -7.1865  -7.1268  -7.1238  -7.1075  -7.0874  -7.0855  -7.0674  -7.0644
    -7.0633  -7.0590  -7.0577  -7.0424  -7.0254  -7.0251  -7.0248  -7.0217
    -6.9783  -6.9606  -6.9456  -6.9072  -6.8883  -6.8789  -6.8750  -6.8647
    -6.8633  -6.8607  -6.8512  -6.8402  -6.8327  -6.8115  -6.8108  -6.7890
    -6.7871  -6.7863  -6.7799  -6.7752  -6.7700  -6.7624  -6.7467  -6.7314
    -6.7112  -6.6925  -6.6839  -6.6500  -6.6215  -6.6167  -6.5890  -6.5801
    -6.5645  -6.5534  -6.5498  -6.5431  -6.5389  -6.5372  -6.5306  -6.5282
    -6.5247  -6.5227  -6.5227  -6.5178  -6.4957  -6.4942  -6.4846  -6.4799
    -6.4648  -6.4538  -6.3600  -6.3572  -6.2980  -6.2842  -6.2498  -6.2456
    -6.2424  -6.2349  -6.2308  -6.2269  -6.2252  -6.2214  -6.2139  -6.2054
    -6.1939  -6.1821  -6.1793  -6.1711  -6.1657  -6.1556  -6.1529  -6.1357
    -6.1265  -6.0820  -6.0546  -5.9238  -5.9081  -5.8834  -5.8811  -5.8719
    -5.8372  -5.7441  -5.7230  -5.7223  -5.7111  -5.7101  -5.6898  -5.6792
    -5.6392  -5.6046  -5.5882  -5.5815  -5.5703  -5.5653  -5.5543  -5.5538
    -5.5512  -5.5496  -5.5395  -5.5367  -5.5337  -5.5283  -5.5221  -5.5145
    -5.4977  -5.4925  -5.4914  -5.4866  -5.4738  -5.4693  -5.4625  -5.4600
    -5.4498  -5.4476  -5.4363  -5.4331  -5.4231  -5.3837  -5.3767  -5.3619
    -5.3297  -5.3245  -5.1809  -5.1399  -5.1190  -5.0990  -5.0913  -5.0428
    -4.9549  -4.9419  -4.8206  -4.8126  -4.7876  -4.7692  -4.7561  -4.7323
    -4.7153  -4.7133  -4.6852  -4.6827  -4.6793  -4.6752  -4.6634  -4.6628
    -4.6611  -4.6555  -4.6530  -4.6435  -4.6405  -4.6306  -4.6158  -4.6130
    -4.5746  -4.5080  -4.4918  -4.4811  -4.4772  -4.4547  -4.4472  -4.4416
    -4.4278  -4.4270  -4.4180  -4.4159  -4.4152  -4.4105  -4.3945  -4.3914
    -4.3710  -4.2615  -4.2463  -4.2210  -4.1706  -4.1468  -4.1317  -4.1166
    -4.1134  -4.0385  -4.0302  -3.9994  -3.9858  -3.9810  -3.9262  -3.9136
    -3.8941  -3.7486  -3.7276  -3.6586  -3.6488  -3.6336  -3.6300  -3.6222
    -3.6171  -3.6082  -3.5994  -3.5953  -3.5947  -3.5911  -3.5882  -3.5732
    -3.5727  -3.5555  -3.5394  -3.5197  -3.5091  -3.4978  -3.4937  -3.4913
    -3.4901  -3.4844  -3.4803  -3.4616  -3.4588  -3.4446  -3.4330  -3.4077
    -3.4057  -3.1821  -3.0915  -3.0838  -3.0593  -3.0543  -3.0412  -2.9557
    -2.8916  -2.8650  -2.8583  -2.8469  -2.8436  -2.8432  -2.8402  -2.8377
    -2.8260  -2.8231  -2.7747  -2.5526  -2.5201  -1.9649  -0.6795   1.3497
     2.0540   2.1499   2.1623   2.2608   2.2671   2.2693   2.2749   2.2785
     2.2855   2.2886   2.2907   2.3004   2.3137   2.3151   2.3245   2.3270
     2.3412   2.3415   2.3506   2.3585   2.3649   2.3785   2.3839   2.3869
     2.3871   2.3892   2.4007   2.4108   2.4416   2.4477   2.4775   2.4864
     2.4911   2.4951   2.5005   2.5025   2.5042   2.5140   2.5379   2.6000
     2.6062   2.7185   2.7192   2.7263   2.7311   2.7333   2.7669   2.8129
     2.9224   2.9344   2.9390   2.9390   2.9397   2.9445   2.9482   2.9502
     2.9549   2.9577   2.9611   2.9637   2.9655   2.9785   2.9943   2.9973
     3.0009   3.0143   3.0216   3.0262   3.0434   3.1083   3.1181   3.1777
     3.1965   3.2148   3.2298   3.3233   3.3427   3.5536   3.5821   3.5826
     3.5889   3.5912   3.5915   3.5956   3.5993   3.6038   3.6092   3.6145
     3.6180   3.6316   3.6694   3.7042   3.7123   3.7241   3.7259   3.7352
     3.7358   3.7408   3.7424   3.7453   3.7462   3.7505   3.7591   3.7607
     3.7671   3.7911   3.8654   3.9197   4.0078   4.0082   4.0120   4.0121
     4.0207   4.0480   4.1391   4.1413   4.1498   4.1502   4.1588   4.1618
     4.1908   4.2377   4.2650   4.2662   4.2714   4.2768   4.2788   4.2836
     4.2888   4.2984   4.3337   4.3348   4.3374

     occupation numbers 
     1.0000   1.0000   1.0000   1.0000   1.0000   1.0000   1.0000   1.0000
     1.0000   1.0000   1.0000   1.0000   1.0000   1.0000   1.0000   1.0000
     1.0000   1.0000   1.0000   1.0000   1.0000   1.0000   1.0000   1.0000
     1.0000   1.0000   1.0000   1.0000   1.0000   1.0000   1.0000   1.0000
     1.0000   1.0000   1.0000   1.0000   1.0000   1.0000   1.0000   1.0000
     1.0000   1.0000   1.0000   1.0000   1.0000   1.0000   1.0000   1.0000
     1.0000   1.0000   1.0000   1.0000   1.0000   1.0000   1.0000   1.0000
     1.0000   1.0000   1.0000   1.0000   1.0000   1.0000   1.0000   1.0000
     1.0000   1.0000   1.0000   1.0000   1.0000   1.0000   1.0000   1.0000
     1.0000   1.0000   1.0000   1.0000   1.0000   1.0000   1.0000   1.0000
     1.0000   1.0000   1.0000   1.0000   1.0000   1.0000   1.0000   1.0000
     1.0000   1.0000   1.0000   1.0000   1.0000   1.0000   1.0000   1.0000
     1.0000   1.0000   1.0000   1.0000   1.0000   1.0000   1.0000   1.0000
     1.0000   1.0000   1.0000   1.0000   1.0000   1.0000   1.0000   1.0000
     1.0000   1.0000   1.0000   1.0000   1.0000   1.0000   1.0000   1.0000
     1.0000   1.0000   1.0000   1.0000   1.0000   1.0000   1.0000   1.0000
     1.0000   1.0000   1.0000   1.0000   1.0000   1.0000   1.0000   1.0000
     1.0000   1.0000   1.0000   1.0000   1.0000   1.0000   1.0000   1.0000
     1.0000   1.0000   1.0000   1.0000   1.0000   1.0000   1.0000   1.0000
     1.0000   1.0000   1.0000   1.0000   1.0000   1.0000   1.0000   1.0000
     1.0000   1.0000   1.0000   1.0000   1.0000   1.0000   1.0000   1.0000
     1.0000   1.0000   1.0000   1.0000   1.0000   1.0000   1.0000   1.0000
     1.0000   1.0000   1.0000   1.0000   1.0000   1.0000   1.0000   1.0000
     1.0000   1.0000   1.0000   1.0000   1.0000   1.0000   1.0000   1.0000
     1.0000   1.0000   1.0000   1.0000   1.0000   1.0000   1.0000   1.0000
     1.0000   1.0000   1.0000   1.0000   1.0000   1.0000   1.0000   1.0000
     1.0000   1.0000   1.0000   1.0000   1.0000   1.0000   1.0000   1.0000
     1.0000   1.0000   1.0000   1.0000   1.0000   1.0000   1.0000   1.0000
     1.0000   1.0000   1.0000   1.0000   1.0000   1.0000   1.0000   1.0000
     1.0000   1.0000   1.0000   1.0000   1.0000   1.0000   1.0000   1.0000
     1.0000   1.0000   1.0000   1.0000   1.0000   1.0000   1.0000   1.0000
     1.0000   1.0000   1.0000   1.0000   1.0000   1.0000   1.0000   1.0000
     1.0000   1.0000   1.0000   1.0000   1.0000   1.0000   1.0000   1.0000
     1.0000   1.0000   1.0000   1.0000   1.0000   1.0000   1.0000   1.0000
     1.0000   1.0000   1.0000   1.0000   1.0000   1.0000   1.0000   1.0000
     1.0000   1.0000   1.0000   1.0000   1.0000   1.0000   1.0000   1.0000
     1.0000   1.0000   1.0000   1.0000   1.0000   1.0000   1.0000   1.0000
     1.0000   1.0000   1.0000   1.0000   1.0000   1.0000   1.0000   1.0000
     1.0000   1.0000   1.0000   1.0000   1.0000   1.0000   1.0000   1.0000
     1.0000   1.0000   1.0000   1.0000   1.0000   1.0000   1.0000   1.0000
     1.0000   1.0000   1.0000   1.0000   1.0000   1.0000   1.0000   1.0000
     1.0000   1.0000   1.0000   1.0000   1.0000   1.0000   1.0000   1.0000
     1.0000   1.0000   1.0000   1.0000   1.0000   1.0000   1.0000   1.0000
     1.0000   1.0000   1.0000   1.0000   1.0000   1.0000   1.0000   1.0000
     1.0000   1.0000   1.0000   1.0000   1.0000   1.0000   1.0000   1.0000
     1.0000   1.0000   1.0000   1.0000   1.0000   1.0000   1.0000   1.0000
     1.0000   1.0000   1.0000   1.0000   1.0000   1.0000   1.0000   1.0000
     1.0000   1.0000   1.0000   1.0000   1.0000   1.0000   1.0000   1.0000
     1.0000   1.0000   1.0000   1.0000   1.0000   1.0000   1.0000   1.0000
     1.0000   1.0000   1.0000   1.0000   1.0000   1.0000   1.0000   1.0000
     1.0000   1.0000   1.0000   1.0000   1.0000   1.0000   1.0000   1.0000
     1.0000   1.0000   1.0000   1.0000   1.0000   1.0000   1.0000   1.0000
     1.0000   1.0000   1.0000   1.0000   1.0000   1.0000   1.0000   1.0000
     1.0000   1.0000   1.0000   1.0000   1.0000   1.0000   1.0000   1.0000
     1.0000   1.0000   1.0000   1.0000   1.0000   1.0000   1.0000   1.0000
     1.0000   1.0000   1.0000   1.0000   1.0000   1.0000   1.0000   1.0000
     1.0000   1.0000   1.0000   1.0000   1.0000   1.0000   1.0000   1.0000
     1.0000   1.0000   1.0000   1.0000   1.0000   1.0000   1.0000   1.0000
     1.0000   1.0000   1.0000   1.0000   1.0000   1.0000   1.0000   1.0000
     1.0000   1.0000   1.0000   1.0000   1.0000   1.0000   1.0000   1.0000
     1.0000   1.0000   1.0000   1.0000   1.0000   1.0000   1.0000   1.0000
     1.0000   1.0000   1.0000   1.0000   1.0000   1.0000   1.0000   1.0000
     1.0000   1.0000   1.0000   1.0000   1.0000   1.0000   1.0000   1.0000
     1.0000   1.0000   1.0000   1.0000   1.0000   1.0000   1.0000   1.0000
     1.0000   1.0000   1.0000   1.0000   1.0000   1.0000   1.0000   1.0000
     1.0000   1.0000   1.0000   1.0000   1.0000   1.0000   1.0000   1.0000
     1.0000   1.0000   1.0000   1.0000   1.0000   1.0000   1.0000   1.0000
     1.0000   1.0000   1.0000   1.0000   1.0000   1.0000   1.0000   1.0000
     1.0000   1.0000   1.0000   1.0000   1.0000   1.0000   1.0000   1.0000
     1.0000   1.0000   1.0000   1.0000   1.0000   1.0000   1.0000   1.0000
     1.0000   1.0000   1.0000   1.0000   1.0000   1.0000   1.0000   1.0000
     1.0000   1.0000   1.0000   1.0000   1.0000   1.0000   1.0000   0.0000
     0.0000   0.0000   0.0000   0.0000   0.0000   0.0000   0.0000   0.0000
     0.0000   0.0000   0.0000   0.0000   0.0000   0.0000   0.0000   0.0000
     0.0000   0.0000   0.0000   0.0000   0.0000   0.0000   0.0000   0.0000
     0.0000   0.0000   0.0000   0.0000   0.0000   0.0000   0.0000   0.0000
     0.0000   0.0000   0.0000   0.0000   0.0000   0.0000   0.0000   0.0000
     0.0000   0.0000   0.0000   0.0000   0.0000   0.0000   0.0000   0.0000
     0.0000   0.0000   0.0000   0.0000   0.0000   0.0000   0.0000   0.0000
     0.0000   0.0000   0.0000   0.0000   0.0000   0.0000   0.0000   0.0000
     0.0000   0.0000   0.0000   0.0000   0.0000   0.0000   0.0000   0.0000
     0.0000   0.0000   0.0000   0.0000   0.0000   0.0000   0.0000   0.0000
     0.0000   0.0000   0.0000   0.0000   0.0000   0.0000   0.0000   0.0000
     0.0000   0.0000   0.0000   0.0000   0.0000   0.0000   0.0000   0.0000
     0.0000   0.0000   0.0000   0.0000   0.0000   0.0000   0.0000   0.0000
     0.0000   0.0000   0.0000   0.0000   0.0000   0.0000   0.0000   0.0000
     0.0000   0.0000   0.0000   0.0000   0.0000   0.0000   0.0000   0.0000
     0.0000   0.0000   0.0000   0.0000   0.0000   0.0000   0.0000   0.0000
     0.0000   0.0000   0.0000   0.0000   0.0000

 ------ SPIN DOWN ----------


          k = 0.0000 0.0000 0.0000 (285439 PWs)   bands (ev):

   -22.3740 -20.2401 -20.1444 -20.1238 -20.1083 -20.0925 -20.0811 -20.0224
   -19.8747 -19.8614 -19.8448 -19.8406 -19.8206 -19.7832 -19.7415 -19.7273
   -19.7072 -19.7015 -19.6977 -19.5553 -19.4293 -19.3683 -19.3624 -19.3467
   -19.3416 -19.3346 -19.3319 -19.3267 -19.3208 -19.2975 -19.2949 -19.1712
   -19.1486 -19.1092 -19.0866 -19.0846 -19.0632 -18.8925 -18.8634 -18.7591
   -18.7482 -18.7258 -18.7212 -18.7023 -18.6965 -18.6612 -18.6518 -18.6426
   -18.6340 -18.6315 -18.6262 -18.6150 -18.6100 -18.5865 -18.5487 -18.3992
   -18.3770 -18.3330 -18.3101 -18.3071 -18.2674 -18.1619 -18.1209 -18.0355
   -18.0231 -18.0054 -18.0039 -17.9997 -17.9963 -17.9863 -17.9824 -17.9599
   -17.9404 -17.9186 -17.8889 -17.8710 -17.8528 -17.8474 -17.8404 -17.8390
   -17.8337 -17.8150 -17.8045 -17.7988 -17.7266 -17.6354 -17.5822 -17.5710
   -17.5518 -17.5499 -17.4898 -17.4509 -17.3929 -17.3492 -17.3300 -17.3261
   -17.3142 -17.3056 -17.3051 -17.3010 -17.2987 -17.2927 -17.2903 -17.2857
   -17.2822 -17.2750 -17.2731 -17.2644 -17.2473 -17.2445 -17.2434 -17.2396
   -17.2363 -17.2355 -17.2294 -17.2219 -17.2209 -17.2166 -17.2097 -17.1909
   -17.1746 -17.1616 -17.1361 -17.0225 -16.9935 -16.9778 -16.9543 -16.9465
   -16.9299 -16.8821 -16.8667 -16.8377 -16.8288 -16.8258 -16.8208 -16.8197
   -16.8129 -16.8126 -16.7945 -16.7900 -16.7080 -16.6417 -16.5817 -13.7767
   -11.4920 -11.4517 -11.4161 -11.3343 -11.3304 -11.2465 -11.2317 -11.2239
   -11.2212 -11.2065 -11.2057 -11.1941 -11.1905 -11.1810 -11.1591 -11.1458
   -11.1310 -11.1280 -11.1090 -11.0877 -11.0522 -10.9661 -10.9284 -10.8698
   -10.8506 -10.8366 -10.8235 -10.8019 -10.7616 -10.7248 -10.6962 -10.6901
   -10.6880 -10.6834 -10.6825 -10.6775 -10.6735 -10.6646 -10.6591 -10.6409
   -10.6398 -10.6285 -10.6250 -10.6179 -10.6171 -10.6057 -10.5997 -10.5975
   -10.5736 -10.5042 -10.4922 -10.4579 -10.4261 -10.2783 -10.2779 -10.2041
   -10.1989 -10.1874 -10.1852 -10.1835 -10.1709 -10.1695 -10.1677 -10.1553
   -10.1511 -10.1506 -10.1313 -10.1284 -10.1145 -10.0097  -9.8551  -9.7183
    -9.6952  -9.6098  -9.5522  -9.4724  -9.4629  -9.4560  -9.4555  -9.4505
    -9.4462  -9.4443  -9.4390  -9.4358  -9.4281  -9.4230  -9.4031  -9.4007
    -9.3931  -9.3139  -9.1564  -9.1542  -9.0777  -9.0626  -9.0553  -9.0530
    -9.0528  -9.0444  -9.0399  -9.0338  -8.9908  -8.9654  -8.8398  -8.7138
    -8.6637  -8.6056  -8.6044  -8.5930  -8.5892  -8.5843  -8.5682  -8.5671
    -8.5510  -8.5453  -8.4993  -8.4695  -8.4477  -8.4402  -8.4068  -8.3757
    -8.2405  -8.2230  -8.1409  -8.1106  -8.0798  -8.0768  -8.0706  -8.0589
    -8.0459  -8.0426  -8.0069  -7.9895  -7.9703  -7.9327  -7.9127  -7.9093
    -7.8881  -7.8848  -7.8844  -7.8762  -7.8650  -7.8531  -7.8072  -7.7880
    -7.7856  -7.7461  -7.7042  -7.6924  -7.6885  -7.6512  -7.6203  -7.6038
    -7.5951  -7.5881  -7.5732  -7.5542  -7.5524  -7.5072  -7.4200  -7.3840
    -7.3805  -7.3771  -7.3677  -7.3655  -7.3566  -7.3525  -7.3346  -7.3214
    -7.2991  -7.2707  -7.2415  -7.2336  -7.2196  -7.1969  -7.1941  -7.1937
    -7.1795  -7.1217  -7.1070  -7.1057  -7.0855  -7.0846  -7.0643  -7.0632
    -7.0632  -7.0567  -7.0558  -7.0409  -7.0251  -7.0244  -7.0187  -7.0009
    -6.9766  -6.9575  -6.9438  -6.9056  -6.8877  -6.8786  -6.8744  -6.8645
    -6.8626  -6.8604  -6.8502  -6.8387  -6.8317  -6.8103  -6.8101  -6.7883
    -6.7861  -6.7859  -6.7796  -6.7749  -6.7692  -6.7460  -6.7302  -6.7108
    -6.6923  -6.6836  -6.6828  -6.6497  -6.6205  -6.6154  -6.5887  -6.5670
    -6.5595  -6.5488  -6.5484  -6.5406  -6.5381  -6.5358  -6.5300  -6.5275
    -6.5241  -6.5217  -6.5207  -6.5164  -6.4949  -6.4932  -6.4842  -6.4725
    -6.4535  -6.4413  -6.3583  -6.3529  -6.2958  -6.2580  -6.2484  -6.2446
    -6.2422  -6.2344  -6.2305  -6.2248  -6.2212  -6.2170  -6.2092  -6.2050
    -6.1919  -6.1787  -6.1757  -6.1707  -6.1649  -6.1555  -6.1370  -6.1349
    -6.1256  -6.0799  -6.0417  -5.9209  -5.9056  -5.8830  -5.8807  -5.8367
    -5.8070  -5.7248  -5.7200  -5.7169  -5.7073  -5.7047  -5.6884  -5.6753
    -5.6254  -5.5865  -5.5859  -5.5751  -5.5671  -5.5623  -5.5531  -5.5511
    -5.5509  -5.5492  -5.5386  -5.5348  -5.5313  -5.5225  -5.5215  -5.5140
    -5.4923  -5.4909  -5.4906  -5.4863  -5.4732  -5.4691  -5.4617  -5.4598
    -5.4484  -5.4470  -5.4326  -5.4227  -5.4137  -5.3834  -5.3758  -5.3618
    -5.3288  -5.3234  -5.1546  -5.1231  -5.1131  -5.0964  -5.0876  -5.0341
    -4.9422  -4.9385  -4.8199  -4.7875  -4.7682  -4.7613  -4.7554  -4.7128
    -4.7100  -4.6961  -4.6797  -4.6787  -4.6784  -4.6696  -4.6614  -4.6582
    -4.6569  -4.6544  -4.6516  -4.6416  -4.6389  -4.6294  -4.6108  -4.5979
    -4.5690  -4.5073  -4.4799  -4.4737  -4.4555  -4.4546  -4.4471  -4.4360
    -4.4257  -4.4227  -4.4169  -4.4149  -4.4144  -4.4084  -4.3939  -4.3897
    -4.3683  -4.2477  -4.2452  -4.2090  -4.1705  -4.1468  -4.1302  -4.1161
    -4.0201  -4.0193  -4.0111  -3.9958  -3.9820  -3.9786  -3.9259  -3.9099
    -3.8928  -3.7079  -3.6846  -3.6536  -3.6442  -3.6299  -3.6274  -3.6181
    -3.6145  -3.6052  -3.5974  -3.5944  -3.5933  -3.5890  -3.5857  -3.5722
    -3.5716  -3.5534  -3.5363  -3.5126  -3.5050  -3.4963  -3.4919  -3.4901
    -3.4897  -3.4841  -3.4797  -3.4604  -3.4570  -3.4435  -3.4311  -3.4065
    -3.3973  -3.1718  -3.0803  -3.0765  -3.0567  -3.0517  -3.0404  -2.9501
    -2.8814  -2.8611  -2.8545  -2.8461  -2.8434  -2.8429  -2.8384  -2.8368
    -2.8246  -2.8227  -2.7701  -2.5505  -2.5163  -1.7836   0.3328   1.5952
     2.0554   2.1615   2.1682   2.2626   2.2699   2.2753   2.2815   2.2856
     2.2866   2.2892   2.2948   2.3124   2.3176   2.3200   2.3294   2.3315
     2.3438   2.3475   2.3594   2.3659   2.3669   2.3824   2.3868   2.3877
     2.3893   2.3979   2.4032   2.4170   2.4558   2.4571   2.4827   2.4885
     2.4933   2.4969   2.5013   2.5064   2.5154   2.5169   2.5401   2.6183
     2.6247   2.7198   2.7205   2.7271   2.7337   2.7339   2.7709   2.8407
     2.9388   2.9391   2.9398   2.9416   2.9452   2.9481   2.9494   2.9533
     2.9622   2.9643   2.9648   2.9718   2.9731   2.9839   2.9965   3.0038
     3.0049   3.0163   3.0245   3.0337   3.0510   3.1138   3.1250   3.1863
     3.2041   3.2263   3.2371   3.3455   3.3638   3.5554   3.5833   3.5839
     3.5895   3.5918   3.5938   3.5963   3.6031   3.6044   3.6103   3.6151
     3.6240   3.6568   3.6777   3.7177   3.7204   3.7265   3.7374   3.7383
     3.7419   3.7455   3.7464   3.7468   3.7483   3.7515   3.7622   3.7652
     3.7677   3.8001   3.8771   3.9330   4.0096   4.0108   4.0127   4.0140
     4.0244   4.0535   4.1417   4.1423   4.1508   4.1533   4.1595   4.1696
     4.2178   4.2563   4.2691   4.2699   4.2778   4.2786   4.2848   4.2888
     4.2990   4.3016   4.3359   4.3368   4.3402

     occupation numbers 
     1.0000   1.0000   1.0000   1.0000   1.0000   1.0000   1.0000   1.0000
     1.0000   1.0000   1.0000   1.0000   1.0000   1.0000   1.0000   1.0000
     1.0000   1.0000   1.0000   1.0000   1.0000   1.0000   1.0000   1.0000
     1.0000   1.0000   1.0000   1.0000   1.0000   1.0000   1.0000   1.0000
     1.0000   1.0000   1.0000   1.0000   1.0000   1.0000   1.0000   1.0000
     1.0000   1.0000   1.0000   1.0000   1.0000   1.0000   1.0000   1.0000
     1.0000   1.0000   1.0000   1.0000   1.0000   1.0000   1.0000   1.0000
     1.0000   1.0000   1.0000   1.0000   1.0000   1.0000   1.0000   1.0000
     1.0000   1.0000   1.0000   1.0000   1.0000   1.0000   1.0000   1.0000
     1.0000   1.0000   1.0000   1.0000   1.0000   1.0000   1.0000   1.0000
     1.0000   1.0000   1.0000   1.0000   1.0000   1.0000   1.0000   1.0000
     1.0000   1.0000   1.0000   1.0000   1.0000   1.0000   1.0000   1.0000
     1.0000   1.0000   1.0000   1.0000   1.0000   1.0000   1.0000   1.0000
     1.0000   1.0000   1.0000   1.0000   1.0000   1.0000   1.0000   1.0000
     1.0000   1.0000   1.0000   1.0000   1.0000   1.0000   1.0000   1.0000
     1.0000   1.0000   1.0000   1.0000   1.0000   1.0000   1.0000   1.0000
     1.0000   1.0000   1.0000   1.0000   1.0000   1.0000   1.0000   1.0000
     1.0000   1.0000   1.0000   1.0000   1.0000   1.0000   1.0000   1.0000
     1.0000   1.0000   1.0000   1.0000   1.0000   1.0000   1.0000   1.0000
     1.0000   1.0000   1.0000   1.0000   1.0000   1.0000   1.0000   1.0000
     1.0000   1.0000   1.0000   1.0000   1.0000   1.0000   1.0000   1.0000
     1.0000   1.0000   1.0000   1.0000   1.0000   1.0000   1.0000   1.0000
     1.0000   1.0000   1.0000   1.0000   1.0000   1.0000   1.0000   1.0000
     1.0000   1.0000   1.0000   1.0000   1.0000   1.0000   1.0000   1.0000
     1.0000   1.0000   1.0000   1.0000   1.0000   1.0000   1.0000   1.0000
     1.0000   1.0000   1.0000   1.0000   1.0000   1.0000   1.0000   1.0000
     1.0000   1.0000   1.0000   1.0000   1.0000   1.0000   1.0000   1.0000
     1.0000   1.0000   1.0000   1.0000   1.0000   1.0000   1.0000   1.0000
     1.0000   1.0000   1.0000   1.0000   1.0000   1.0000   1.0000   1.0000
     1.0000   1.0000   1.0000   1.0000   1.0000   1.0000   1.0000   1.0000
     1.0000   1.0000   1.0000   1.0000   1.0000   1.0000   1.0000   1.0000
     1.0000   1.0000   1.0000   1.0000   1.0000   1.0000   1.0000   1.0000
     1.0000   1.0000   1.0000   1.0000   1.0000   1.0000   1.0000   1.0000
     1.0000   1.0000   1.0000   1.0000   1.0000   1.0000   1.0000   1.0000
     1.0000   1.0000   1.0000   1.0000   1.0000   1.0000   1.0000   1.0000
     1.0000   1.0000   1.0000   1.0000   1.0000   1.0000   1.0000   1.0000
     1.0000   1.0000   1.0000   1.0000   1.0000   1.0000   1.0000   1.0000
     1.0000   1.0000   1.0000   1.0000   1.0000   1.0000   1.0000   1.0000
     1.0000   1.0000   1.0000   1.0000   1.0000   1.0000   1.0000   1.0000
     1.0000   1.0000   1.0000   1.0000   1.0000   1.0000   1.0000   1.0000
     1.0000   1.0000   1.0000   1.0000   1.0000   1.0000   1.0000   1.0000
     1.0000   1.0000   1.0000   1.0000   1.0000   1.0000   1.0000   1.0000
     1.0000   1.0000   1.0000   1.0000   1.0000   1.0000   1.0000   1.0000
     1.0000   1.0000   1.0000   1.0000   1.0000   1.0000   1.0000   1.0000
     1.0000   1.0000   1.0000   1.0000   1.0000   1.0000   1.0000   1.0000
     1.0000   1.0000   1.0000   1.0000   1.0000   1.0000   1.0000   1.0000
     1.0000   1.0000   1.0000   1.0000   1.0000   1.0000   1.0000   1.0000
     1.0000   1.0000   1.0000   1.0000   1.0000   1.0000   1.0000   1.0000
     1.0000   1.0000   1.0000   1.0000   1.0000   1.0000   1.0000   1.0000
     1.0000   1.0000   1.0000   1.0000   1.0000   1.0000   1.0000   1.0000
     1.0000   1.0000   1.0000   1.0000   1.0000   1.0000   1.0000   1.0000
     1.0000   1.0000   1.0000   1.0000   1.0000   1.0000   1.0000   1.0000
     1.0000   1.0000   1.0000   1.0000   1.0000   1.0000   1.0000   1.0000
     1.0000   1.0000   1.0000   1.0000   1.0000   1.0000   1.0000   1.0000
     1.0000   1.0000   1.0000   1.0000   1.0000   1.0000   1.0000   1.0000
     1.0000   1.0000   1.0000   1.0000   1.0000   1.0000   1.0000   1.0000
     1.0000   1.0000   1.0000   1.0000   1.0000   1.0000   1.0000   1.0000
     1.0000   1.0000   1.0000   1.0000   1.0000   1.0000   1.0000   1.0000
     1.0000   1.0000   1.0000   1.0000   1.0000   1.0000   1.0000   1.0000
     1.0000   1.0000   1.0000   1.0000   1.0000   1.0000   1.0000   1.0000
     1.0000   1.0000   1.0000   1.0000   1.0000   1.0000   1.0000   1.0000
     1.0000   1.0000   1.0000   1.0000   1.0000   1.0000   1.0000   1.0000
     1.0000   1.0000   1.0000   1.0000   1.0000   1.0000   1.0000   1.0000
     1.0000   1.0000   1.0000   1.0000   1.0000   1.0000   1.0000   1.0000
     1.0000   1.0000   1.0000   1.0000   1.0000   1.0000   1.0000   1.0000
     1.0000   1.0000   1.0000   1.0000   1.0000   1.0000   1.0000   1.0000
     1.0000   1.0000   1.0000   1.0000   1.0000   1.0000   1.0000   1.0000
     1.0000   1.0000   1.0000   1.0000   1.0000   1.0000   1.0000   1.0000
     1.0000   1.0000   1.0000   1.0000   1.0000   1.0000   1.0000   1.0000
     1.0000   1.0000   1.0000   1.0000   1.0000   1.0000   1.0000   1.0000
     1.0000   1.0000   1.0000   1.0000   1.0000   1.0000   1.0000   1.0000
     1.0000   1.0000   1.0000   1.0000   1.0000   1.0000   0.0000   0.0000
     0.0000   0.0000   0.0000   0.0000   0.0000   0.0000   0.0000   0.0000
     0.0000   0.0000   0.0000   0.0000   0.0000   0.0000   0.0000   0.0000
     0.0000   0.0000   0.0000   0.0000   0.0000   0.0000   0.0000   0.0000
     0.0000   0.0000   0.0000   0.0000   0.0000   0.0000   0.0000   0.0000
     0.0000   0.0000   0.0000   0.0000   0.0000   0.0000   0.0000   0.0000
     0.0000   0.0000   0.0000   0.0000   0.0000   0.0000   0.0000   0.0000
     0.0000   0.0000   0.0000   0.0000   0.0000   0.0000   0.0000   0.0000
     0.0000   0.0000   0.0000   0.0000   0.0000   0.0000   0.0000   0.0000
     0.0000   0.0000   0.0000   0.0000   0.0000   0.0000   0.0000   0.0000
     0.0000   0.0000   0.0000   0.0000   0.0000   0.0000   0.0000   0.0000
     0.0000   0.0000   0.0000   0.0000   0.0000   0.0000   0.0000   0.0000
     0.0000   0.0000   0.0000   0.0000   0.0000   0.0000   0.0000   0.0000
     0.0000   0.0000   0.0000   0.0000   0.0000   0.0000   0.0000   0.0000
     0.0000   0.0000   0.0000   0.0000   0.0000   0.0000   0.0000   0.0000
     0.0000   0.0000   0.0000   0.0000   0.0000   0.0000   0.0000   0.0000
     0.0000   0.0000   0.0000   0.0000   0.0000   0.0000   0.0000   0.0000
     0.0000   0.0000   0.0000   0.0000   0.0000

     the Fermi energy is     0.1320 ev

     Writing output data file bn.save
 
     init_run     :      7.30s CPU      7.41s WALL (       1 calls)
     electrons    :   1521.09s CPU   1533.10s WALL (       1 calls)

     Called by init_run:
     wfcinit      :      0.00s CPU      0.01s WALL (       1 calls)
     wfcinit:atom :      0.01s CPU      0.02s WALL (       2 calls)
     wfcinit:wfcr :     22.85s CPU     23.04s WALL (       2 calls)
     potinit      :      0.69s CPU      0.75s WALL (       1 calls)

     Called by electrons:
     c_bands      :   1521.09s CPU   1533.10s WALL (       1 calls)
     v_of_rho     :      0.21s CPU      0.24s WALL (       1 calls)
     v_h          :      0.01s CPU      0.01s WALL (       1 calls)
     v_xc         :      0.21s CPU      0.23s WALL (       1 calls)

     Called by c_bands:
     init_us_2    :      0.17s CPU      0.24s WALL (       2 calls)
     cegterg      :   1496.84s CPU   1508.13s WALL (      12 calls)

     Called by sum_band:

     Called by *egterg:
     h_psi        :    719.34s CPU    723.56s WALL (     254 calls)
     g_psi        :      1.97s CPU      1.98s WALL (     240 calls)
     cdiaghg      :    203.11s CPU    203.91s WALL (     242 calls)
     cegterg:over :    251.84s CPU    252.59s WALL (     240 calls)
     cegterg:upda :    201.84s CPU    202.84s WALL (     240 calls)
     cegterg:last :    118.35s CPU    118.88s WALL (      26 calls)
     cdiaghg:chol :     18.41s CPU     18.43s WALL (     242 calls)
     cdiaghg:inve :     22.21s CPU     22.26s WALL (     242 calls)
     cdiaghg:para :     49.87s CPU     50.13s WALL (     484 calls)

     Called by h_psi:
     h_psi:pot    :    714.99s CPU    719.09s WALL (     254 calls)
     h_psi:calbec :    191.04s CPU    191.63s WALL (     254 calls)
     vloc_psi     :    328.34s CPU    331.19s WALL (     254 calls)
     add_vuspsi   :    195.61s CPU    196.27s WALL (     254 calls)

     General routines
     calbec       :    191.03s CPU    191.63s WALL (     254 calls)
     fft          :      0.14s CPU      0.16s WALL (      18 calls)
     fftw         :    270.88s CPU    273.17s WALL (  104128 calls)
     davcio       :      0.00s CPU      0.22s WALL (       4 calls)
 
     Parallel routines
     fft_scatter  :    121.88s CPU    123.11s WALL (  104146 calls)
 
     PWSCF        : 25m50.50s CPU    26m10.99s WALL

 
   This run was terminated on:   2:36:53  20Jun2019            

=------------------------------------------------------------------------------=
   JOB DONE.
=------------------------------------------------------------------------------=
