
     Program PWSCF v.6.1 (svn rev. 13369) starts on 10Feb2021 at 22:51:53 

     This program is part of the open-source Quantum ESPRESSO suite
     for quantum simulation of materials; please cite
         "P. Giannozzi et al., J. Phys.:Condens. Matter 21 395502 (2009);
          URL http://www.quantum-espresso.org", 
     in publications or presentations arising from this work. More details at
     http://www.quantum-espresso.org/quote

     Parallel version (MPI), running on   160 processors
     K-points division:     npool     =       2
     R & G space division:  proc/nbgrp/npool/nimage =      80
     Reading input from scf.in
Warning: card &CELL ignored
Warning: card / ignored
Warning: card &IONS ignored
Warning: card / ignored

     Current dimensions of program PWSCF are:
     Max number of different atomic species (ntypx) = 10
     Max number of k-points (npk) = 120000
     Max angular momentum in pseudopotentials (lmaxx) =  3

     Subspace diagonalization in iterative solution of the eigenvalue problem:
     a serial algorithm will be used

 
     Parallelization info
     --------------------
     sticks:   dense  smooth     PW     G-vecs:    dense   smooth      PW
     Min         153     153     38                14461    14461    1806
     Max         154     154     39                14464    14464    1813
     Sum       12259   12259   3067              1156971  1156971  144701
 


     bravais-lattice index     =            0
     lattice parameter (alat)  =      28.4287  a.u.
     unit-cell volume          =   20997.3881 (a.u.)^3
     number of atoms/cell      =           72
     number of atomic types    =            3
     number of electrons       =       288.00 (up: 144.00, down: 144.00)
     number of Kohn-Sham states=          168
     kinetic-energy cutoff     =      55.0000  Ry
     charge density cutoff     =     220.0000  Ry
     convergence threshold     =      1.0E-08
     mixing beta               =       0.7000
     number of iterations used =            8  plain     mixing
     Exchange-correlation      = PBE ( 1  4  3  4 0 0)

     celldm(1)=  28.428666  celldm(2)=   0.000000  celldm(3)=   0.000000
     celldm(4)=   0.000000  celldm(5)=   0.000000  celldm(6)=   0.000000

     crystal axes: (cart. coord. in units of alat)
               a(1) = (   1.000000   0.000000   0.000000 )  
               a(2) = (  -0.499999   0.866026   0.000000 )  
               a(3) = (   0.000000   0.000000   1.055273 )  

     reciprocal axes: (cart. coord. in units 2 pi/alat)
               b(1) = (  1.000000  0.577349  0.000000 )  
               b(2) = (  0.000000  1.154700  0.000000 )  
               b(3) = (  0.000000  0.000000  0.947622 )  


     PseudoPot. # 1 for B  read from file:
     ~/pseudo-ONCV-proj/B_ONCV_PBE-1.0.upf
     MD5 check sum: Not computed, couldn't open file
     Pseudo is Norm-conserving, Zval =  3.0
     Generated using ONCVPSP code by D. R. Hamann
     Using radial grid of 1534 points,  4 beta functions with: 
                l(1) =   0
                l(2) =   0
                l(3) =   1
                l(4) =   1

     PseudoPot. # 2 for N  read from file:
     ~/pseudo-ONCV-proj/N_ONCV_PBE-1.0.upf
     MD5 check sum: Not computed, couldn't open file
     Pseudo is Norm-conserving, Zval =  5.0
     Generated using ONCVPSP code by D. R. Hamann
     Using radial grid of 1058 points,  4 beta functions with: 
                l(1) =   0
                l(2) =   0
                l(3) =   1
                l(4) =   1

     PseudoPot. # 3 for C  read from file:
     ~/pseudo-ONCV-proj/C_ONCV_PBE-1.0.upf
     MD5 check sum: Not computed, couldn't open file
     Pseudo is Norm-conserving, Zval =  4.0
     Generated using ONCVPSP code by D. R. Hamann
     Using radial grid of 1248 points,  4 beta functions with: 
                l(1) =   0
                l(2) =   0
                l(3) =   1
                l(4) =   1

     atomic species   valence    mass     pseudopotential
        B              3.00    10.81100     B ( 1.00)
        N              5.00    14.00674     N ( 1.00)
        C              4.00    12.01070     C ( 1.00)

     Starting magnetic structure 
     atomic species   magnetization
        B            1.000
        N            0.000
        C            0.000

      2 Sym. Ops. (no inversion) found


                                    s                        frac. trans.

      isym =  1     identity                                     

 cryst.   s( 1) = (     1          0          0      )
                  (     0          1          0      )
                  (     0          0          1      )

 cart.    s( 1) = (  1.0000000 -0.0000000  0.0000000 )
                  (  0.0000000  1.0000000  0.0000000 )
                  (  0.0000000  0.0000000  1.0000000 )


      isym =  2     inv. 180 deg rotation - cart. axis [0,0,1]   

 cryst.   s( 2) = (     1          0          0      )
                  (     0          1          0      )
                  (     0          0         -1      )

 cart.    s( 2) = (  1.0000000 -0.0000000  0.0000000 )
                  (  0.0000000  1.0000000  0.0000000 )
                  (  0.0000000  0.0000000 -1.0000000 )


   Cartesian axes

     site n.     atom                  positions (alat units)
         1           B   tau(   1) = (  -0.0001352   0.0960675   0.5276366  )
         2           B   tau(   2) = (  -0.0832832   0.2406397   0.5276366  )
         3           B   tau(   3) = (  -0.1665745   0.3849049   0.5276366  )
         4           B   tau(   4) = (  -0.2502034   0.5291995   0.5276366  )
         5           B   tau(   5) = (  -0.3332539   0.6735962   0.5276366  )
         6           B   tau(   6) = (  -0.4166085   0.8179711   0.5276366  )
         7           B   tau(   7) = (   0.1666520   0.0960506   0.5276366  )
         8           B   tau(   8) = (   0.0832613   0.2404090   0.5276366  )
         9           B   tau(   9) = (   0.0005847   0.3852376   0.5276366  )
        10           B   tau(  10) = (  -0.0835019   0.5292521   0.5276366  )
        11           B   tau(  11) = (  -0.1668242   0.6736499   0.5276366  )
        12           B   tau(  12) = (  -0.2500112   0.8179062   0.5276366  )
        13           B   tau(  13) = (   0.3334821   0.0959608   0.5276366  )
        14           B   tau(  14) = (   0.2504301   0.2394823   0.5276366  )
        15           B   tau(  15) = (   0.1679351   0.3834556   0.5276366  )
        16           B   tau(  16) = (   0.0827168   0.5310584   0.5276366  )
        17           B   tau(  17) = (  -0.0007199   0.6744880   0.5276366  )
        18           B   tau(  18) = (  -0.0834868   0.8181740   0.5276366  )
        19           B   tau(  19) = (   0.5000689   0.0962646   0.5276366  )
        20           B   tau(  20) = (   0.4164967   0.2408890   0.5276366  )
        21           B   tau(  21) = (   0.3321832   0.3851594   0.5276366  )
        22           B   tau(  22) = (   0.1663166   0.6724496   0.5276366  )
        23           B   tau(  23) = (   0.0835318   0.8176026   0.5276366  )
        24           B   tau(  24) = (   0.6666766   0.0961407   0.5276366  )
        25           B   tau(  25) = (   0.5832656   0.2406132   0.5276366  )
        26           B   tau(  26) = (   0.4997184   0.3850174   0.5276366  )
        27           B   tau(  27) = (   0.4164876   0.5300622   0.5276366  )
        28           B   tau(  28) = (   0.3339581   0.6730078   0.5276366  )
        29           B   tau(  29) = (   0.2499613   0.8176105   0.5276366  )
        30           B   tau(  30) = (   0.8332588   0.0961335   0.5276366  )
        31           B   tau(  31) = (   0.7499664   0.2405431   0.5276366  )
        32           B   tau(  32) = (   0.6665506   0.3848814   0.5276366  )
        33           B   tau(  33) = (   0.5830151   0.5292654   0.5276366  )
        34           B   tau(  34) = (   0.5004908   0.6738585   0.5276366  )
        35           B   tau(  35) = (   0.4165320   0.8176234   0.5276366  )
        36           N   tau(  36) = (   0.0832520   0.0479728   0.5276366  )
        37           N   tau(  37) = (  -0.0001483   0.1921471   0.5276366  )
        38           N   tau(  38) = (  -0.0831520   0.3368921   0.5276366  )
        39           N   tau(  39) = (  -0.1670027   0.4811482   0.5276366  )
        40           N   tau(  40) = (  -0.2501608   0.6254623   0.5276366  )
        41           N   tau(  41) = (  -0.3333829   0.7697716   0.5276366  )
        42           N   tau(  42) = (   0.2500479   0.0479995   0.5276366  )
        43           N   tau(  43) = (   0.1667473   0.1920311   0.5276366  )
        44           N   tau(  44) = (   0.0836139   0.3362223   0.5276366  )
        45           N   tau(  45) = (  -0.0003490   0.4816506   0.5276366  )
        46           N   tau(  46) = (  -0.0836552   0.6257421   0.5276366  )
        47           N   tau(  47) = (  -0.1667395   0.7698985   0.5276366  )
        48           N   tau(  48) = (   0.4167754   0.0481751   0.5276366  )
        49           N   tau(  49) = (   0.3337566   0.1919775   0.5276366  )
        50           N   tau(  50) = (   0.2508588   0.3352339   0.5276366  )
        51           N   tau(  51) = (   0.0824177   0.6269833   0.5276366  )
        52           N   tau(  52) = (  -0.0001968   0.7704033   0.5276366  )
        53           N   tau(  53) = (   0.5834877   0.0479274   0.5276366  )
        54           N   tau(  54) = (   0.4999172   0.1926761   0.5276366  )
        55           N   tau(  55) = (   0.4161313   0.3376548   0.5276366  )
        56           N   tau(  56) = (   0.3316634   0.4833681   0.5276366  )
        57           N   tau(  57) = (   0.2511077   0.6228949   0.5276366  )
        58           N   tau(  58) = (   0.1671506   0.7689031   0.5276366  )
        59           N   tau(  59) = (   0.7499667   0.0477993   0.5276366  )
        60           N   tau(  60) = (   0.6665878   0.1924043   0.5276366  )
        61           N   tau(  61) = (   0.5830460   0.3369153   0.5276366  )
        62           N   tau(  62) = (   0.4991966   0.4813100   0.5276366  )
        63           N   tau(  63) = (   0.4171220   0.6257255   0.5276366  )
        64           N   tau(  64) = (   0.3330922   0.7690120   0.5276366  )
        65           N   tau(  65) = (   0.9164595   0.0477483   0.5276366  )
        66           N   tau(  66) = (   0.8332638   0.1923550   0.5276366  )
        67           N   tau(  67) = (   0.7498832   0.3367748   0.5276366  )
        68           N   tau(  68) = (   0.6662484   0.4811279   0.5276366  )
        69           N   tau(  69) = (   0.5833372   0.6254559   0.5276366  )
        70           N   tau(  70) = (   0.4999962   0.7698069   0.5276366  )
        71           C   tau(  71) = (   0.2502292   0.5293699   0.5276366  )
        72           C   tau(  72) = (   0.1705175   0.4833483   0.5276366  )

   Crystallographic axes

     site n.     atom                  positions (cryst. coord.)
         1           B   tau(   1) = (  0.0553292  0.1109291  0.5000000  )
         2           B   tau(   2) = (  0.0556499  0.2778666  0.5000000  )
         3           B   tau(   3) = (  0.0556499  0.4444496  0.5000000  )
         4           B   tau(   4) = (  0.0553292  0.6110665  0.5000000  )
         5           B   tau(   5) = (  0.0556461  0.7778014  0.5000000  )
         6           B   tau(   6) = (  0.0556460  0.9445110  0.5000000  )
         7           B   tau(   7) = (  0.2221067  0.1109096  0.5000000  )
         8           B   tau(   8) = (  0.2220611  0.2776002  0.5000000  )
         9           B   tau(   9) = (  0.2230011  0.4448337  0.5000000  )
        10           B   tau(  10) = (  0.2220611  0.6111273  0.5000000  )
        11           B   tau(  11) = (  0.2221067  0.7778634  0.5000000  )
        12           B   tau(  12) = (  0.2222059  0.9444361  0.5000000  )
        13           B   tau(  13) = (  0.3888849  0.1108060  0.5000000  )
        14           B   tau(  14) = (  0.3886949  0.2765302  0.5000000  )
        15           B   tau(  15) = (  0.3893227  0.4427761  0.5000000  )
        16           B   tau(  16) = (  0.3893227  0.6132129  0.5000000  )
        17           B   tau(  17) = (  0.3886949  0.7788311  0.5000000  )
        18           B   tau(  18) = (  0.3888849  0.9447453  0.5000000  )
        19           B   tau(  19) = (  0.5556471  0.1111567  0.5000000  )
        20           B   tau(  20) = (  0.5555737  0.2781544  0.5000000  )
        21           B   tau(  21) = (  0.5545544  0.4447435  0.5000000  )
        22           B   tau(  22) = (  0.5545544  0.7764773  0.5000000  )
        23           B   tau(  23) = (  0.5555737  0.9440856  0.5000000  )
        24           B   tau(  24) = (  0.7221833  0.1110136  0.5000000  )
        25           B   tau(  25) = (  0.7221833  0.2778361  0.5000000  )
        26           B   tau(  26) = (  0.7220077  0.4445794  0.5000000  )
        27           B   tau(  27) = (  0.7225183  0.6120627  0.5000000  )
        28           B   tau(  28) = (  0.7225183  0.7771220  0.5000000  )
        29           B   tau(  29) = (  0.7220077  0.9440946  0.5000000  )
        30           B   tau(  30) = (  0.8887614  0.1110053  0.5000000  )
        31           B   tau(  31) = (  0.8888437  0.2777550  0.5000000  )
        32           B   tau(  32) = (  0.8887614  0.4444224  0.5000000  )
        33           B   tau(  33) = (  0.8885858  0.6111426  0.5000000  )
        34           B   tau(  34) = (  0.8895422  0.7781043  0.5000000  )
        35           B   tau(  35) = (  0.8885858  0.9441096  0.5000000  )
        36           N   tau(  36) = (  0.1109490  0.0553941  0.5000000  )
        37           N   tau(  37) = (  0.1107876  0.2218722  0.5000000  )
        38           N   tau(  38) = (  0.1113522  0.3890093  0.5000000  )
        39           N   tau(  39) = (  0.1107876  0.5555817  0.5000000  )
        40           N   tau(  40) = (  0.1109490  0.7222212  0.5000000  )
        41           N   tau(  41) = (  0.1110437  0.8888550  0.5000000  )
        42           N   tau(  42) = (  0.2777603  0.0554251  0.5000000  )
        43           N   tau(  43) = (  0.2776162  0.2217382  0.5000000  )
        44           N   tau(  44) = (  0.2777314  0.3882358  0.5000000  )
        45           N   tau(  45) = (  0.2777314  0.5561619  0.5000000  )
        46           N   tau(  46) = (  0.2776162  0.7225442  0.5000000  )
        47           N   tau(  47) = (  0.2777603  0.8890016  0.5000000  )
        48           N   tau(  48) = (  0.4445892  0.0556278  0.5000000  )
        49           N   tau(  49) = (  0.4445945  0.2216764  0.5000000  )
        50           N   tau(  50) = (  0.4444057  0.3870945  0.5000000  )
        51           N   tau(  51) = (  0.4444057  0.7239775  0.5000000  )
        52           N   tau(  52) = (  0.4445945  0.8895844  0.5000000  )
        53           N   tau(  53) = (  0.6111585  0.0553417  0.5000000  )
        54           N   tau(  54) = (  0.6111585  0.2224831  0.5000000  )
        55           N   tau(  55) = (  0.6110758  0.3898899  0.5000000  )
        56           N   tau(  56) = (  0.6107353  0.5581450  0.5000000  )
        57           N   tau(  57) = (  0.6107353  0.7192566  0.5000000  )
        58           N   tau(  58) = (  0.6110758  0.8878522  0.5000000  )
        59           N   tau(  59) = (  0.7775636  0.0551939  0.5000000  )
        60           N   tau(  60) = (  0.7776722  0.2221692  0.5000000  )
        61           N   tau(  61) = (  0.7775636  0.3890360  0.5000000  )
        62           N   tau(  62) = (  0.7770803  0.5557686  0.5000000  )
        63           N   tau(  63) = (  0.7783838  0.7225250  0.5000000  )
        64           N   tau(  64) = (  0.7770803  0.8879780  0.5000000  )
        65           N   tau(  65) = (  0.9440269  0.0551350  0.5000000  )
        66           N   tau(  66) = (  0.9443197  0.2221123  0.5000000  )
        67           N   tau(  67) = (  0.9443197  0.3888738  0.5000000  )
        68           N   tau(  68) = (  0.9440269  0.5555582  0.5000000  )
        69           N   tau(  69) = (  0.9444433  0.7222137  0.5000000  )
        70           N   tau(  70) = (  0.9444433  0.8888959  0.5000000  )
        71           C   tau(  71) = (  0.5558602  0.6112633  0.5000000  )
        72           C   tau(  72) = (  0.4495781  0.5581222  0.5000000  )

     number of k points=     1
                       cart. coord. in units 2pi/alat
        k(    1) = (   0.0000000   0.0000000   0.0000000), wk =   1.0000000

                       cryst. coord.
        k(    1) = (   0.0000000   0.0000000   0.0000000), wk =   1.0000000

     Dense  grid:  1156971 G-vectors     FFT dimensions: ( 135, 135, 144)

     Estimated max dynamical RAM per process >      68.84MB

     Estimated total allocated dynamical RAM >   11014.86MB
     Generating pointlists ...
     new r_m :   0.0394 (alat units)  1.1190 (a.u.) for type    1
     new r_m :   0.0386 (alat units)  1.0968 (a.u.) for type    2
     new r_m :   0.0380 (alat units)  1.0794 (a.u.) for type    3

     Initial potential from superposition of free atoms
     Check: negative starting charge=(component1):   -0.001385
     Check: negative starting charge=(component2):   -0.001913

     starting charge  287.99093, renormalised to  288.00000

     negative rho (up, down):  1.386E-03 1.913E-03
     Starting wfc are  288 randomized atomic wfcs

     total cpu time spent up to now is        2.9 secs

     per-process dynamical memory:    91.4 Mb

     Self-consistent Calculation

     iteration #  1     ecut=    55.00 Ry     beta=0.70
     Davidson diagonalization with overlap
     ethr =  1.00E-02,  avg # of iterations =  2.5

     negative rho (up, down):  1.552E-04 3.038E-04

     total cpu time spent up to now is        4.3 secs

     total energy              =    -916.57842999 Ry
     Harris-Foulkes estimate   =    -922.75028851 Ry
     estimated scf accuracy    <      17.33867720 Ry

     total magnetization       =    -0.00 Bohr mag/cell
     absolute magnetization    =    18.29 Bohr mag/cell

     iteration #  2     ecut=    55.00 Ry     beta=0.70
     Davidson diagonalization with overlap
     ethr =  6.02E-03,  avg # of iterations =  3.0

     negative rho (up, down):  6.557E-05 1.190E-04

     total cpu time spent up to now is        5.7 secs

     total energy              =    -921.55279440 Ry
     Harris-Foulkes estimate   =    -925.94739870 Ry
     estimated scf accuracy    <      10.21748358 Ry

     total magnetization       =     0.00 Bohr mag/cell
     absolute magnetization    =    13.59 Bohr mag/cell

     iteration #  3     ecut=    55.00 Ry     beta=0.70
     Davidson diagonalization with overlap
     ethr =  3.55E-03,  avg # of iterations =  3.0

     negative rho (up, down):  2.099E-06 5.141E-06

     total cpu time spent up to now is        7.2 secs

     total energy              =    -923.64581824 Ry
     Harris-Foulkes estimate   =    -923.51939416 Ry
     estimated scf accuracy    <       0.32505057 Ry

     total magnetization       =     0.00 Bohr mag/cell
     absolute magnetization    =     8.65 Bohr mag/cell

     iteration #  4     ecut=    55.00 Ry     beta=0.70
     Davidson diagonalization with overlap
     c_bands:  2 eigenvalues not converged
     ethr =  1.13E-04,  avg # of iterations = 19.0

     total cpu time spent up to now is       11.2 secs

     total energy              =    -923.80260159 Ry
     Harris-Foulkes estimate   =    -923.98121562 Ry
     estimated scf accuracy    <       0.58035787 Ry

     total magnetization       =    -0.00 Bohr mag/cell
     absolute magnetization    =     4.87 Bohr mag/cell

     iteration #  5     ecut=    55.00 Ry     beta=0.70
     Davidson diagonalization with overlap
     ethr =  1.13E-04,  avg # of iterations =  5.5

     negative rho (up, down):  7.643E-09 1.362E-08

     total cpu time spent up to now is       12.7 secs

     total energy              =    -923.91105514 Ry
     Harris-Foulkes estimate   =    -923.91033569 Ry
     estimated scf accuracy    <       0.03052499 Ry

     total magnetization       =     0.00 Bohr mag/cell
     absolute magnetization    =     3.47 Bohr mag/cell

     iteration #  6     ecut=    55.00 Ry     beta=0.70
     Davidson diagonalization with overlap
     ethr =  1.06E-05,  avg # of iterations =  6.5

     total cpu time spent up to now is       14.5 secs

     total energy              =    -923.93032471 Ry
     Harris-Foulkes estimate   =    -923.91897086 Ry
     estimated scf accuracy    <       0.00580360 Ry

     total magnetization       =    -0.00 Bohr mag/cell
     absolute magnetization    =     2.57 Bohr mag/cell

     iteration #  7     ecut=    55.00 Ry     beta=0.70
     Davidson diagonalization with overlap
     ethr =  2.02E-06,  avg # of iterations =  3.5

     total cpu time spent up to now is       16.5 secs

     total energy              =    -923.93762979 Ry
     Harris-Foulkes estimate   =    -923.93774736 Ry
     estimated scf accuracy    <       0.00508366 Ry

     total magnetization       =    -0.00 Bohr mag/cell
     absolute magnetization    =     0.97 Bohr mag/cell

     iteration #  8     ecut=    55.00 Ry     beta=0.70
     Davidson diagonalization with overlap
     ethr =  1.77E-06,  avg # of iterations =  2.5

     total cpu time spent up to now is       17.8 secs

     total energy              =    -923.93850644 Ry
     Harris-Foulkes estimate   =    -923.93842950 Ry
     estimated scf accuracy    <       0.00092405 Ry

     total magnetization       =    -0.00 Bohr mag/cell
     absolute magnetization    =     0.54 Bohr mag/cell

     iteration #  9     ecut=    55.00 Ry     beta=0.70
     Davidson diagonalization with overlap
     ethr =  3.21E-07,  avg # of iterations =  3.0

     total cpu time spent up to now is       19.4 secs

     total energy              =    -923.93898813 Ry
     Harris-Foulkes estimate   =    -923.93898220 Ry
     estimated scf accuracy    <       0.00007407 Ry

     total magnetization       =     0.00 Bohr mag/cell
     absolute magnetization    =     0.16 Bohr mag/cell

     iteration # 10     ecut=    55.00 Ry     beta=0.70
     Davidson diagonalization with overlap
     ethr =  2.57E-08,  avg # of iterations =  3.0

     total cpu time spent up to now is       20.9 secs

     total energy              =    -923.93905269 Ry
     Harris-Foulkes estimate   =    -923.93905874 Ry
     estimated scf accuracy    <       0.00001654 Ry

     total magnetization       =     0.00 Bohr mag/cell
     absolute magnetization    =     0.02 Bohr mag/cell

     iteration # 11     ecut=    55.00 Ry     beta=0.70
     Davidson diagonalization with overlap
     ethr =  5.74E-09,  avg # of iterations =  3.0

     total cpu time spent up to now is       22.1 secs

     total energy              =    -923.93905675 Ry
     Harris-Foulkes estimate   =    -923.93905641 Ry
     estimated scf accuracy    <       0.00000066 Ry

     total magnetization       =    -0.00 Bohr mag/cell
     absolute magnetization    =     0.01 Bohr mag/cell

     iteration # 12     ecut=    55.00 Ry     beta=0.70
     Davidson diagonalization with overlap
     ethr =  2.30E-10,  avg # of iterations =  3.5

     total cpu time spent up to now is       23.6 secs

     total energy              =    -923.93905718 Ry
     Harris-Foulkes estimate   =    -923.93905708 Ry
     estimated scf accuracy    <       0.00000015 Ry

     total magnetization       =    -0.00 Bohr mag/cell
     absolute magnetization    =     0.00 Bohr mag/cell

     iteration # 13     ecut=    55.00 Ry     beta=0.70
     Davidson diagonalization with overlap
     ethr =  5.14E-11,  avg # of iterations =  3.5

     total cpu time spent up to now is       25.0 secs

     total energy              =    -923.93905729 Ry
     Harris-Foulkes estimate   =    -923.93905724 Ry
     estimated scf accuracy    <       0.00000003 Ry

     total magnetization       =     0.00 Bohr mag/cell
     absolute magnetization    =     0.00 Bohr mag/cell

     iteration # 14     ecut=    55.00 Ry     beta=0.70
     Davidson diagonalization with overlap
     ethr =  1.20E-11,  avg # of iterations =  4.0
 
     Magnetic moment per site:
     atom:    1    charge:    0.8610    magn:    0.0000    constr:    0.0000
     atom:    2    charge:    0.8599    magn:    0.0000    constr:    0.0000
     atom:    3    charge:    0.8599    magn:    0.0000    constr:    0.0000
     atom:    4    charge:    0.8610    magn:   -0.0000    constr:    0.0000
     atom:    5    charge:    0.8628    magn:    0.0000    constr:    0.0000
     atom:    6    charge:    0.8628    magn:    0.0000    constr:    0.0000
     atom:    7    charge:    0.8651    magn:   -0.0000    constr:    0.0000
     atom:    8    charge:    0.8622    magn:   -0.0000    constr:    0.0000
     atom:    9    charge:    0.8571    magn:   -0.0000    constr:    0.0000
     atom:   10    charge:    0.8622    magn:   -0.0000    constr:    0.0000
     atom:   11    charge:    0.8651    magn:   -0.0000    constr:    0.0000
     atom:   12    charge:    0.8628    magn:   -0.0000    constr:    0.0000
     atom:   13    charge:    0.8643    magn:   -0.0000    constr:    0.0000
     atom:   14    charge:    0.8680    magn:   -0.0000    constr:    0.0000
     atom:   15    charge:    0.8703    magn:   -0.0000    constr:    0.0000
     atom:   16    charge:    0.8703    magn:   -0.0000    constr:    0.0000
     atom:   17    charge:    0.8680    magn:   -0.0000    constr:    0.0000
     atom:   18    charge:    0.8643    magn:   -0.0000    constr:    0.0000
     atom:   19    charge:    0.8611    magn:    0.0000    constr:    0.0000
     atom:   20    charge:    0.8576    magn:    0.0000    constr:    0.0000
     atom:   21    charge:    0.8552    magn:    0.0000    constr:    0.0000
     atom:   22    charge:    0.8552    magn:    0.0000    constr:    0.0000
     atom:   23    charge:    0.8576    magn:    0.0000    constr:    0.0000
     atom:   24    charge:    0.8612    magn:    0.0000    constr:    0.0000
     atom:   25    charge:    0.8612    magn:    0.0000    constr:    0.0000
     atom:   26    charge:    0.8623    magn:    0.0000    constr:    0.0000
     atom:   27    charge:    0.8640    magn:    0.0000    constr:    0.0000
     atom:   28    charge:    0.8640    magn:    0.0000    constr:    0.0000
     atom:   29    charge:    0.8623    magn:    0.0000    constr:    0.0000
     atom:   30    charge:    0.8629    magn:    0.0000    constr:    0.0000
     atom:   31    charge:    0.8611    magn:    0.0000    constr:    0.0000
     atom:   32    charge:    0.8629    magn:    0.0000    constr:    0.0000
     atom:   33    charge:    0.8598    magn:    0.0000    constr:    0.0000
     atom:   34    charge:    0.8670    magn:    0.0000    constr:    0.0000
     atom:   35    charge:    0.8598    magn:    0.0000    constr:    0.0000
     atom:   36    charge:    2.7212    magn:   -0.0000    constr:    0.0000
     atom:   37    charge:    2.7174    magn:    0.0000    constr:    0.0000
     atom:   38    charge:    2.7172    magn:   -0.0000    constr:    0.0000
     atom:   39    charge:    2.7174    magn:    0.0000    constr:    0.0000
     atom:   40    charge:    2.7212    magn:   -0.0000    constr:    0.0000
     atom:   41    charge:    2.7179    magn:   -0.0000    constr:    0.0000
     atom:   42    charge:    2.7211    magn:   -0.0000    constr:    0.0000
     atom:   43    charge:    2.7207    magn:    0.0000    constr:    0.0000
     atom:   44    charge:    2.7165    magn:    0.0000    constr:    0.0000
     atom:   45    charge:    2.7165    magn:    0.0000    constr:    0.0000
     atom:   46    charge:    2.7207    magn:    0.0000    constr:    0.0000
     atom:   47    charge:    2.7211    magn:   -0.0000    constr:    0.0000
     atom:   48    charge:    2.7234    magn:   -0.0000    constr:    0.0000
     atom:   49    charge:    2.7216    magn:    0.0000    constr:    0.0000
     atom:   50    charge:    2.7255    magn:   -0.0000    constr:    0.0000
     atom:   51    charge:    2.7255    magn:   -0.0000    constr:    0.0000
     atom:   52    charge:    2.7216    magn:    0.0000    constr:    0.0000
     atom:   53    charge:    2.7188    magn:   -0.0000    constr:    0.0000
     atom:   54    charge:    2.7188    magn:   -0.0000    constr:    0.0000
     atom:   55    charge:    2.7159    magn:   -0.0000    constr:    0.0000
     atom:   56    charge:    2.6975    magn:   -0.0000    constr:    0.0000
     atom:   57    charge:    2.6975    magn:   -0.0000    constr:    0.0000
     atom:   58    charge:    2.7159    magn:   -0.0000    constr:    0.0000
     atom:   59    charge:    2.7194    magn:   -0.0000    constr:    0.0000
     atom:   60    charge:    2.7167    magn:   -0.0000    constr:    0.0000
     atom:   61    charge:    2.7194    magn:   -0.0000    constr:    0.0000
     atom:   62    charge:    2.7163    magn:   -0.0000    constr:    0.0000
     atom:   63    charge:    2.7272    magn:   -0.0000    constr:    0.0000
     atom:   64    charge:    2.7163    magn:   -0.0000    constr:    0.0000
     atom:   65    charge:    2.7196    magn:   -0.0000    constr:    0.0000
     atom:   66    charge:    2.7194    magn:   -0.0000    constr:    0.0000
     atom:   67    charge:    2.7194    magn:   -0.0000    constr:    0.0000
     atom:   68    charge:    2.7196    magn:   -0.0000    constr:    0.0000
     atom:   69    charge:    2.7221    magn:   -0.0000    constr:    0.0000
     atom:   70    charge:    2.7221    magn:   -0.0000    constr:    0.0000
     atom:   71    charge:    1.5450    magn:    0.0001    constr:    0.0000
     atom:   72    charge:    1.6319    magn:   -0.0001    constr:    0.0000

     total cpu time spent up to now is       26.5 secs

     End of self-consistent calculation

 ------ SPIN UP ------------


          k = 0.0000 0.0000 0.0000 (144701 PWs)   bands (ev):

   -21.9694 -21.1696 -20.8420 -20.7978 -20.7475 -20.7261 -20.6125 -20.1252
   -19.9613 -19.8067 -19.7950 -19.7553 -19.6564 -19.4860 -19.4695 -19.3621
   -19.3365 -19.3223 -19.0874 -18.7436 -18.5114 -18.4126 -18.3628 -18.3337
   -18.3333 -18.3031 -18.2967 -18.2756 -18.2688 -18.2606 -18.2228 -18.1522
   -18.1306 -17.7357 -17.6513 -15.5897 -13.1845 -12.5414 -12.5315 -12.2270
   -12.0406 -11.7872 -11.7796 -11.7410 -11.7399 -11.7036 -11.6873 -11.6859
   -11.6609 -11.5987 -11.5839 -11.5559 -11.5007 -11.0071 -10.7813 -10.6761
   -10.6112 -10.5670 -10.4992 -10.4374 -10.3952  -9.6490  -9.4461  -9.2208
    -9.2155  -9.1733  -9.1674  -9.1300  -9.1207  -9.0356  -9.0245  -9.0125
    -8.9903  -8.9831  -8.9761  -8.9579  -8.9474  -8.8992  -8.7945  -8.6032
    -8.4933  -8.2143  -8.1954  -8.1513  -8.1257  -8.0534  -8.0088  -7.8508
    -7.8285  -7.7183  -7.6847  -7.6344  -7.6267  -7.5276  -7.5034  -7.3807
    -7.3163  -7.3088  -7.2511  -7.2280  -7.1281  -7.1054  -7.0168  -7.0062
    -6.9959  -6.9530  -6.8854  -6.8420  -6.8323  -6.8307  -6.7934  -6.6951
    -6.4736  -6.3711  -6.2689  -6.2330  -6.2119  -6.1879  -6.0306  -5.9996
    -5.9429  -5.8963  -5.8946  -5.8356  -5.3831  -4.9961  -4.9683  -4.9561
    -4.7806  -4.7595  -4.7335  -4.7203  -4.7022  -4.6889  -4.6661  -4.6594
    -4.6409  -4.5845  -4.5788  -4.5291  -4.4773  -3.9575  -3.6596  -3.1500
     0.3784   1.0485   1.0703   1.1197   1.1775   1.1961   1.4729   1.7268
     1.7977   1.8017   1.8202   1.8379   1.8721   1.8855   1.9028   1.9046
     1.9121   1.9227   1.9403   1.9688   1.9820   1.9833   2.0379   2.0562

     occupation numbers 
     1.0000   1.0000   1.0000   1.0000   1.0000   1.0000   1.0000   1.0000
     1.0000   1.0000   1.0000   1.0000   1.0000   1.0000   1.0000   1.0000
     1.0000   1.0000   1.0000   1.0000   1.0000   1.0000   1.0000   1.0000
     1.0000   1.0000   1.0000   1.0000   1.0000   1.0000   1.0000   1.0000
     1.0000   1.0000   1.0000   1.0000   1.0000   1.0000   1.0000   1.0000
     1.0000   1.0000   1.0000   1.0000   1.0000   1.0000   1.0000   1.0000
     1.0000   1.0000   1.0000   1.0000   1.0000   1.0000   1.0000   1.0000
     1.0000   1.0000   1.0000   1.0000   1.0000   1.0000   1.0000   1.0000
     1.0000   1.0000   1.0000   1.0000   1.0000   1.0000   1.0000   1.0000
     1.0000   1.0000   1.0000   1.0000   1.0000   1.0000   1.0000   1.0000
     1.0000   1.0000   1.0000   1.0000   1.0000   1.0000   1.0000   1.0000
     1.0000   1.0000   1.0000   1.0000   1.0000   1.0000   1.0000   1.0000
     1.0000   1.0000   1.0000   1.0000   1.0000   1.0000   1.0000   1.0000
     1.0000   1.0000   1.0000   1.0000   1.0000   1.0000   1.0000   1.0000
     1.0000   1.0000   1.0000   1.0000   1.0000   1.0000   1.0000   1.0000
     1.0000   1.0000   1.0000   1.0000   1.0000   1.0000   1.0000   1.0000
     1.0000   1.0000   1.0000   1.0000   1.0000   1.0000   1.0000   1.0000
     1.0000   1.0000   1.0000   1.0000   1.0000   1.0000   1.0000   1.0000
     0.0000   0.0000   0.0000   0.0000   0.0000   0.0000   0.0000   0.0000
     0.0000   0.0000   0.0000   0.0000   0.0000   0.0000   0.0000   0.0000
     0.0000   0.0000   0.0000   0.0000   0.0000   0.0000   0.0000   0.0000

 ------ SPIN DOWN ----------


          k = 0.0000 0.0000 0.0000 (144701 PWs)   bands (ev):

   -21.9694 -21.1696 -20.8420 -20.7978 -20.7475 -20.7261 -20.6125 -20.1252
   -19.9613 -19.8067 -19.7950 -19.7553 -19.6564 -19.4860 -19.4695 -19.3621
   -19.3364 -19.3223 -19.0874 -18.7436 -18.5114 -18.4126 -18.3628 -18.3337
   -18.3333 -18.3032 -18.2967 -18.2756 -18.2688 -18.2606 -18.2228 -18.1522
   -18.1306 -17.7357 -17.6513 -15.5897 -13.1845 -12.5414 -12.5314 -12.2270
   -12.0406 -11.7871 -11.7796 -11.7410 -11.7399 -11.7035 -11.6872 -11.6859
   -11.6609 -11.5987 -11.5839 -11.5559 -11.5007 -11.0071 -10.7813 -10.6761
   -10.6112 -10.5670 -10.4992 -10.4374 -10.3952  -9.6490  -9.4461  -9.2208
    -9.2154  -9.1733  -9.1674  -9.1300  -9.1207  -9.0356  -9.0245  -9.0125
    -8.9903  -8.9831  -8.9760  -8.9579  -8.9474  -8.8992  -8.7945  -8.6032
    -8.4932  -8.2143  -8.1954  -8.1513  -8.1257  -8.0533  -8.0088  -7.8508
    -7.8284  -7.7183  -7.6847  -7.6344  -7.6267  -7.5275  -7.5034  -7.3807
    -7.3163  -7.3088  -7.2510  -7.2280  -7.1281  -7.1053  -7.0168  -7.0062
    -6.9959  -6.9530  -6.8854  -6.8420  -6.8323  -6.8307  -6.7934  -6.6951
    -6.4736  -6.3711  -6.2689  -6.2330  -6.2119  -6.1879  -6.0306  -5.9997
    -5.9428  -5.8962  -5.8946  -5.8356  -5.3831  -4.9961  -4.9683  -4.9562
    -4.7807  -4.7596  -4.7335  -4.7203  -4.7022  -4.6889  -4.6661  -4.6594
    -4.6410  -4.5845  -4.5789  -4.5291  -4.4773  -3.9576  -3.6597  -3.1502
     0.3789   1.0486   1.0703   1.1198   1.1776   1.1961   1.4730   1.7269
     1.7978   1.8018   1.8202   1.8380   1.8721   1.8856   1.9029   1.9046
     1.9121   1.9227   1.9402   1.9685   1.9820   1.9833   2.0379   2.0629

     occupation numbers 
     1.0000   1.0000   1.0000   1.0000   1.0000   1.0000   1.0000   1.0000
     1.0000   1.0000   1.0000   1.0000   1.0000   1.0000   1.0000   1.0000
     1.0000   1.0000   1.0000   1.0000   1.0000   1.0000   1.0000   1.0000
     1.0000   1.0000   1.0000   1.0000   1.0000   1.0000   1.0000   1.0000
     1.0000   1.0000   1.0000   1.0000   1.0000   1.0000   1.0000   1.0000
     1.0000   1.0000   1.0000   1.0000   1.0000   1.0000   1.0000   1.0000
     1.0000   1.0000   1.0000   1.0000   1.0000   1.0000   1.0000   1.0000
     1.0000   1.0000   1.0000   1.0000   1.0000   1.0000   1.0000   1.0000
     1.0000   1.0000   1.0000   1.0000   1.0000   1.0000   1.0000   1.0000
     1.0000   1.0000   1.0000   1.0000   1.0000   1.0000   1.0000   1.0000
     1.0000   1.0000   1.0000   1.0000   1.0000   1.0000   1.0000   1.0000
     1.0000   1.0000   1.0000   1.0000   1.0000   1.0000   1.0000   1.0000
     1.0000   1.0000   1.0000   1.0000   1.0000   1.0000   1.0000   1.0000
     1.0000   1.0000   1.0000   1.0000   1.0000   1.0000   1.0000   1.0000
     1.0000   1.0000   1.0000   1.0000   1.0000   1.0000   1.0000   1.0000
     1.0000   1.0000   1.0000   1.0000   1.0000   1.0000   1.0000   1.0000
     1.0000   1.0000   1.0000   1.0000   1.0000   1.0000   1.0000   1.0000
     1.0000   1.0000   1.0000   1.0000   1.0000   1.0000   1.0000   1.0000
     0.0000   0.0000   0.0000   0.0000   0.0000   0.0000   0.0000   0.0000
     0.0000   0.0000   0.0000   0.0000   0.0000   0.0000   0.0000   0.0000
     0.0000   0.0000   0.0000   0.0000   0.0000   0.0000   0.0000   0.0000

     highest occupied, lowest unoccupied level (ev):    -3.1500    0.3784

!    total energy              =    -923.93905733 Ry
     Harris-Foulkes estimate   =    -923.93905732 Ry
     estimated scf accuracy    <          5.6E-09 Ry

     The total energy is the sum of the following terms:

     one-electron contribution =   -6004.62000803 Ry
     hartree contribution      =    3060.51209396 Ry
     xc contribution           =    -264.87874192 Ry
     ewald contribution        =    2285.04759867 Ry

     total magnetization       =     0.00 Bohr mag/cell
     absolute magnetization    =     0.00 Bohr mag/cell

     convergence has been achieved in  14 iterations

     Writing output data file BN.save
 
     init_run     :      2.33s CPU      2.76s WALL (       1 calls)
     electrons    :     23.37s CPU     23.82s WALL (       1 calls)

     Called by init_run:
     wfcinit      :      0.51s CPU      0.55s WALL (       1 calls)
     wfcinit:atom :      0.00s CPU      0.01s WALL (       1 calls)
     wfcinit:wfcr :      0.49s CPU      0.51s WALL (       1 calls)
     potinit      :      0.37s CPU      0.40s WALL (       1 calls)

     Called by electrons:
     c_bands      :     20.68s CPU     20.95s WALL (      14 calls)
     sum_band     :      1.40s CPU      1.44s WALL (      14 calls)
     v_of_rho     :      0.72s CPU      0.75s WALL (      15 calls)
     v_h          :      0.03s CPU      0.03s WALL (      15 calls)
     v_xc         :      0.69s CPU      0.71s WALL (      15 calls)
     mix_rho      :      0.30s CPU      0.33s WALL (      14 calls)

     Called by c_bands:
     init_us_2    :      0.20s CPU      0.22s WALL (      29 calls)
     cegterg      :     19.44s CPU     19.70s WALL (      14 calls)

     Called by sum_band:

     Called by *egterg:
     h_psi        :     10.08s CPU     10.19s WALL (      84 calls)
     g_psi        :      0.04s CPU      0.04s WALL (      69 calls)
     cdiaghg      :      5.91s CPU      5.95s WALL (      83 calls)
     cegterg:over :      1.54s CPU      1.55s WALL (      69 calls)
     cegterg:upda :      0.95s CPU      0.96s WALL (      69 calls)
     cegterg:last :      0.37s CPU      0.38s WALL (      15 calls)

     Called by h_psi:
     h_psi:pot    :      9.91s CPU     10.02s WALL (      84 calls)
     h_psi:calbec :      1.48s CPU      1.49s WALL (      84 calls)
     vloc_psi     :      7.05s CPU      7.14s WALL (      84 calls)
     add_vuspsi   :      1.37s CPU      1.38s WALL (      84 calls)

     General routines
     calbec       :      1.48s CPU      1.49s WALL (      84 calls)
     fft          :      0.55s CPU      0.57s WALL (     312 calls)
     fftw         :      7.53s CPU      7.63s WALL (   16958 calls)
 
     Parallel routines
     fft_scatter  :      4.74s CPU      4.81s WALL (   17270 calls)
 
     PWSCF        :    28.52s CPU        30.35s WALL

 
   This run was terminated on:  22:52:23  10Feb2021            

=------------------------------------------------------------------------------=
   JOB DONE.
=------------------------------------------------------------------------------=
