ANIMSTEPS 216
CRYSTAL
PRIMVEC
   15.043802171    0.000000000    0.000000000
   -7.521886042   13.028323819    0.000000000
    0.000000000    0.000000000   15.875320760
PRIMCOORD  1
     72   1
   B     -0.00210   1.44534   7.93766   0.00000  -0.00000   0.00921
   B     -1.25272   3.62051   7.93766   0.00000  -0.00000   0.00393
   B     -2.50550   5.79040   7.93766   0.00000  -0.00000   0.00394
   B     -3.76395   7.96105   7.93766   0.00000  -0.00000   0.00921
   B     -5.01331  10.13344   7.93766   0.00000  -0.00000   0.01416
   B     -6.26734  12.30548   7.93766   0.00000  -0.00000   0.01415
   B      2.50705   1.44511   7.93766   0.00000  -0.00000   0.00824
   B      1.25282   3.61722   7.93766   0.00000  -0.00000  -0.00584
   B      0.00968   5.79595   7.93766   0.00000  -0.00000  -0.01388
   B     -1.25557   7.96190   7.93766   0.00000  -0.00000  -0.00583
   B     -2.50956  10.13416   7.93766   0.00000  -0.00000   0.00824
   B     -3.76113  12.30442   7.93766   0.00000  -0.00000   0.01479
   B      5.01691   1.44359   7.93766   0.00000  -0.00000   0.01039
   B      3.76741   3.60253   7.93766   0.00000  -0.00000  -0.00477
   B      2.52754   5.76960   7.93766   0.00000  -0.00000  -0.02377
   B      1.24579   7.98966   7.93766   0.00000  -0.00000  -0.02377
   B     -0.01100  10.14695   7.93766   0.00000  -0.00000  -0.00476
   B     -1.25595  12.30852   7.93766   0.00000  -0.00000   0.01039
   B      7.52305   1.44825   7.93766   0.00000  -0.00000   0.01279
   B      6.26583   3.62416   7.93766   0.00000  -0.00000   0.00484
   B      4.99703   5.79424   7.93766   0.00000  -0.00000  -0.01239
   B      2.50188  10.11597   7.93766   0.00000  -0.00000  -0.01240
   B      1.25694  12.29983   7.93766   0.00000  -0.00000   0.00484
   B     10.02942   1.44632   7.93766   0.00000  -0.00000   0.01356
   B      8.77456   3.61979   7.93766   0.00000  -0.00000   0.01356
   B      7.51725   5.79205   7.93766   0.00000  -0.00000   0.00439
   B      6.26439   7.97455   7.93766   0.00000  -0.00000  -0.00526
   B      5.02376  10.12338   7.93766   0.00000  -0.00000  -0.00526
   B      3.76010  12.29964   7.93766   0.00000  -0.00000   0.00438
   B     12.53535   1.44619   7.93766   0.00000  -0.00000   0.01193
   B     11.28237   3.61870   7.93766   0.00000  -0.00000   0.01342
   B     10.02742   5.79007   7.93766   0.00000  -0.00000   0.01193
   B      8.77037   7.96217   7.93766   0.00000  -0.00000   0.00914
   B      7.52926  10.13738   7.93766   0.00000  -0.00000   0.00786
   B      6.26603  12.29982   7.93766   0.00000  -0.00000   0.00914
   N      1.25249   0.72173   7.93766   0.00000  -0.00000   0.01164
   N     -0.00199   2.89087   7.93766   0.00000  -0.00000   0.00277
   N     -1.25054   5.06836   7.93766   0.00000  -0.00000  -0.00230
   N     -2.51202   7.23839   7.93766   0.00000  -0.00000   0.00278
   N     -3.76330   9.40936   7.93766   0.00000  -0.00000   0.01164
   N     -5.01530  11.58032   7.93766   0.00000  -0.00000   0.01609
   N      3.76169   0.72217   7.93766   0.00000  -0.00000   0.01239
   N      2.50868   2.88913   7.93766   0.00000  -0.00000  -0.00134
   N      1.25865   5.05857   7.93766   0.00000  -0.00000  -0.01756
   N     -0.00442   7.24628   7.93766   0.00000  -0.00000  -0.01756
   N     -1.25819   9.41356   7.93766   0.00000  -0.00000  -0.00133
   N     -2.50832  11.58218   7.93766   0.00000  -0.00000   0.01240
   N      6.26983   0.72471   7.93766   0.00000  -0.00000   0.01276
   N      5.02089   2.88831   7.93766   0.00000  -0.00000   0.00396
   N      3.77420   5.04389   7.93766   0.00000  -0.00000  -0.01601
   N      1.24065   9.43215   7.93766   0.00000  -0.00000  -0.01601
   N     -0.00279  11.58960   7.93766   0.00000  -0.00000   0.00396
   N      8.77787   0.72104   7.93766   0.00000  -0.00000   0.01188
   N      7.52068   2.89857   7.93766   0.00000  -0.00000   0.01188
   N      6.26032   5.07949   7.93766   0.00000  -0.00000  -0.00138
   N      4.98795   7.27153   7.93766   0.00000  -0.00000  -0.01613
   N      3.77671   9.36947   7.93766   0.00000  -0.00000  -0.01613
   N      2.51453  11.56740   7.93766   0.00000  -0.00000  -0.00138
   N     11.28244   0.71894   7.93766   0.00000  -0.00000   0.01148
   N     10.02805   2.89451   7.93766   0.00000  -0.00000   0.01595
   N      8.77115   5.06863   7.93766   0.00000  -0.00000   0.01148
   N      7.50881   7.24099   7.93766   0.00000  -0.00000   0.00287
   N      6.27472   9.41307   7.93766   0.00000  -0.00000  -0.00153
   N      5.01069  11.56786   7.93766   0.00000  -0.00000   0.00287
   N     13.78702   0.71807   7.93766   0.00000  -0.00000   0.01136
   N     12.53560   2.89375   7.93766   0.00000  -0.00000   0.01136
   N     11.28117   5.06650   7.93766   0.00000  -0.00000   0.01136
   N     10.02269   7.23810   7.93766   0.00000  -0.00000   0.01136
   N      8.77545   9.40922   7.93766   0.00000  -0.00000   0.01150
   N      7.52175  11.58070   7.93766   0.00000  -0.00000   0.01150
   C      3.75988   7.96113   7.93766   0.00000  -0.00000  -0.02252
   C      2.56706   7.27245   7.93766   0.00000  -0.00000  -0.03005
PRIMCOORD  2
     72   1
   B     -0.00210   1.44534   7.93766   0.01135   0.00306  -0.00000
   B     -1.25272   3.62051   7.93766   0.01133   0.00308  -0.00000
   B     -2.50550   5.79040   7.93766   0.01131   0.00308  -0.00000
   B     -3.76395   7.96105   7.93766   0.01133   0.00309  -0.00000
   B     -5.01331  10.13344   7.93766   0.01134   0.00308  -0.00000
   B     -6.26734  12.30548   7.93766   0.01135   0.00307  -0.00000
   B      2.50705   1.44511   7.93766   0.01137   0.00307  -0.00000
   B      1.25282   3.61722   7.93766   0.01136   0.00306  -0.00000
   B      0.00968   5.79595   7.93766   0.01132   0.00309  -0.00000
   B     -1.25557   7.96190   7.93766   0.01133   0.00311  -0.00000
   B     -2.50956  10.13416   7.93766   0.01135   0.00310  -0.00000
   B     -3.76113  12.30442   7.93766   0.01136   0.00309  -0.00000
   B      5.01691   1.44359   7.93766   0.01139   0.00310  -0.00000
   B      3.76741   3.60253   7.93766   0.01141   0.00313  -0.00000
   B      2.52754   5.76960   7.93766   0.01144   0.00313  -0.00000
   B      1.24579   7.98966   7.93766   0.01140   0.00313  -0.00000
   B     -0.01100  10.14695   7.93766   0.01140   0.00311  -0.00000
   B     -1.25595  12.30852   7.93766   0.01139   0.00309  -0.00000
   B      7.52305   1.44825   7.93766   0.01140   0.00311  -0.00000
   B      6.26583   3.62416   7.93766   0.01140   0.00315  -0.00000
   B      4.99703   5.79424   7.93766   0.01144   0.00318  -0.00000
   B      2.50188  10.11597   7.93766   0.01144   0.00310  -0.00000
   B      1.25694  12.29983   7.93766   0.01141   0.00308  -0.00000
   B     10.02942   1.44632   7.93766   0.01138   0.00309  -0.00000
   B      8.77456   3.61979   7.93766   0.01137   0.00313  -0.00000
   B      7.51725   5.79205   7.93766   0.01137   0.00314  -0.00000
   B      6.26439   7.97455   7.93766   0.01136   0.00310  -0.00000
   B      5.02376  10.12338   7.93766   0.01138   0.00307  -0.00000
   B      3.76010  12.29964   7.93766   0.01138   0.00307  -0.00000
   B     12.53535   1.44619   7.93766   0.01135   0.00308  -0.00000
   B     11.28237   3.61870   7.93766   0.01135   0.00309  -0.00000
   B     10.02742   5.79007   7.93766   0.01134   0.00310  -0.00000
   B      8.77037   7.96217   7.93766   0.01132   0.00308  -0.00000
   B      7.52926  10.13738   7.93766   0.01133   0.00306  -0.00000
   B      6.26603  12.29982   7.93766   0.01135   0.00306  -0.00000
   N      1.25249   0.72173   7.93766   0.01135   0.00306  -0.00000
   N     -0.00199   2.89087   7.93766   0.01134   0.00306  -0.00000
   N     -1.25054   5.06836   7.93766   0.01130   0.00307  -0.00000
   N     -2.51202   7.23839   7.93766   0.01130   0.00308  -0.00000
   N     -3.76330   9.40936   7.93766   0.01134   0.00309  -0.00000
   N     -5.01530  11.58032   7.93766   0.01136   0.00308  -0.00000
   N      3.76169   0.72217   7.93766   0.01139   0.00309  -0.00000
   N      2.50868   2.88913   7.93766   0.01139   0.00307  -0.00000
   N      1.25865   5.05857   7.93766   0.01136   0.00309  -0.00000
   N     -0.00442   7.24628   7.93766   0.01136   0.00313  -0.00000
   N     -1.25819   9.41356   7.93766   0.01137   0.00312  -0.00000
   N     -2.50832  11.58218   7.93766   0.01136   0.00309  -0.00000
   N      6.26983   0.72471   7.93766   0.01140   0.00310  -0.00000
   N      5.02089   2.88831   7.93766   0.01140   0.00313  -0.00000
   N      3.77420   5.04389   7.93766   0.01147   0.00317  -0.00000
   N      1.24065   9.43215   7.93766   0.01141   0.00314  -0.00000
   N     -0.00279  11.58960   7.93766   0.01141   0.00310  -0.00000
   N      8.77787   0.72104   7.93766   0.01139   0.00309  -0.00000
   N      7.52068   2.89857   7.93766   0.01139   0.00314  -0.00000
   N      6.26032   5.07949   7.93766   0.01141   0.00316  -0.00000
   N      4.98795   7.27153   7.93766   0.01142   0.00314  -0.00000
   N      3.77671   9.36947   7.93766   0.01145   0.00311  -0.00000
   N      2.51453  11.56740   7.93766   0.01140   0.00308  -0.00000
   N     11.28244   0.71894   7.93766   0.01137   0.00306  -0.00000
   N     10.02805   2.89451   7.93766   0.01136   0.00309  -0.00000
   N      8.77115   5.06863   7.93766   0.01134   0.00313  -0.00000
   N      7.50881   7.24099   7.93766   0.01132   0.00311  -0.00000
   N      6.27472   9.41307   7.93766   0.01135   0.00305  -0.00000
   N      5.01069  11.56786   7.93766   0.01135   0.00304  -0.00000
   N     13.78702   0.71807   7.93766   0.01135   0.00307  -0.00000
   N     12.53560   2.89375   7.93766   0.01133   0.00309  -0.00000
   N     11.28117   5.06650   7.93766   0.01133   0.00309  -0.00000
   N     10.02269   7.23810   7.93766   0.01134   0.00309  -0.00000
   N      8.77545   9.40922   7.93766   0.01132   0.00307  -0.00000
   N      7.52175  11.58070   7.93766   0.01135   0.00306  -0.00000
   C      3.75988   7.96113   7.93766   0.01147   0.00314  -0.00000
   C      2.56706   7.27245   7.93766   0.01147   0.00315  -0.00000
PRIMCOORD  3
     72   1
   B     -0.00210   1.44534   7.93766  -0.00308   0.01139  -0.00000
   B     -1.25272   3.62051   7.93766  -0.00309   0.01138  -0.00000
   B     -2.50550   5.79040   7.93766  -0.00311   0.01134  -0.00000
   B     -3.76395   7.96105   7.93766  -0.00313   0.01135   0.00000
   B     -5.01331  10.13344   7.93766  -0.00311   0.01137   0.00000
   B     -6.26734  12.30548   7.93766  -0.00308   0.01139  -0.00000
   B      2.50705   1.44511   7.93766  -0.00310   0.01138  -0.00000
   B      1.25282   3.61722   7.93766  -0.00309   0.01138  -0.00000
   B      0.00968   5.79595   7.93766  -0.00309   0.01133  -0.00000
   B     -1.25557   7.96190   7.93766  -0.00311   0.01135  -0.00000
   B     -2.50956  10.13416   7.93766  -0.00312   0.01139   0.00000
   B     -3.76113  12.30442   7.93766  -0.00310   0.01138   0.00000
   B      5.01691   1.44359   7.93766  -0.00312   0.01139   0.00000
   B      3.76741   3.60253   7.93766  -0.00312   0.01140  -0.00000
   B      2.52754   5.76960   7.93766  -0.00308   0.01134  -0.00000
   B      1.24579   7.98966   7.93766  -0.00308   0.01134  -0.00000
   B     -0.01100  10.14695   7.93766  -0.00310   0.01139   0.00000
   B     -1.25595  12.30852   7.93766  -0.00311   0.01138   0.00000
   B      7.52305   1.44825   7.93766  -0.00312   0.01139  -0.00000
   B      6.26583   3.62416   7.93766  -0.00312   0.01140   0.00000
   B      4.99703   5.79424   7.93766  -0.00310   0.01135  -0.00000
   B      2.50188  10.11597   7.93766  -0.00310   0.01137  -0.00000
   B      1.25694  12.29983   7.93766  -0.00311   0.01138  -0.00000
   B     10.02942   1.44632   7.93766  -0.00309   0.01141  -0.00000
   B      8.77456   3.61979   7.93766  -0.00310   0.01140  -0.00000
   B      7.51725   5.79205   7.93766  -0.00311   0.01137  -0.00000
   B      6.26439   7.97455   7.93766  -0.00309   0.01132  -0.00000
   B      5.02376  10.12338   7.93766  -0.00305   0.01136  -0.00000
   B      3.76010  12.29964   7.93766  -0.00309   0.01138  -0.00000
   B     12.53535   1.44619   7.93766  -0.00307   0.01140  -0.00000
   B     11.28237   3.61870   7.93766  -0.00309   0.01140  -0.00000
   B     10.02742   5.79007   7.93766  -0.00310   0.01137  -0.00000
   B      8.77037   7.96217   7.93766  -0.00311   0.01134   0.00000
   B      7.52926  10.13738   7.93766  -0.00308   0.01136  -0.00000
   B      6.26603  12.29982   7.93766  -0.00306   0.01139  -0.00000
   N      1.25249   0.72173   7.93766  -0.00308   0.01138  -0.00000
   N     -0.00199   2.89087   7.93766  -0.00309   0.01139  -0.00000
   N     -1.25054   5.06836   7.93766  -0.00310   0.01136  -0.00000
   N     -2.51202   7.23839   7.93766  -0.00312   0.01132  -0.00000
   N     -3.76330   9.40936   7.93766  -0.00313   0.01137   0.00000
   N     -5.01530  11.58032   7.93766  -0.00309   0.01139   0.00000
   N      3.76169   0.72217   7.93766  -0.00312   0.01137   0.00000
   N      2.50868   2.88913   7.93766  -0.00310   0.01139  -0.00000
   N      1.25865   5.05857   7.93766  -0.00307   0.01137  -0.00000
   N     -0.00442   7.24628   7.93766  -0.00310   0.01133  -0.00000
   N     -1.25819   9.41356   7.93766  -0.00310   0.01139   0.00000
   N     -2.50832  11.58218   7.93766  -0.00311   0.01138   0.00000
   N      6.26983   0.72471   7.93766  -0.00312   0.01138   0.00000
   N      5.02089   2.88831   7.93766  -0.00313   0.01140   0.00000
   N      3.77420   5.04389   7.93766  -0.00311   0.01137  -0.00000
   N      1.24065   9.43215   7.93766  -0.00311   0.01138  -0.00000
   N     -0.00279  11.58960   7.93766  -0.00311   0.01138  -0.00000
   N      8.77787   0.72104   7.93766  -0.00310   0.01139  -0.00000
   N      7.52068   2.89857   7.93766  -0.00312   0.01139  -0.00000
   N      6.26032   5.07949   7.93766  -0.00310   0.01140   0.00000
   N      4.98795   7.27153   7.93766  -0.00307   0.01130  -0.00000
   N      3.77671   9.36947   7.93766  -0.00306   0.01134  -0.00000
   N      2.51453  11.56740   7.93766  -0.00312   0.01138  -0.00000
   N     11.28244   0.71894   7.93766  -0.00308   0.01140  -0.00000
   N     10.02805   2.89451   7.93766  -0.00309   0.01143  -0.00000
   N      8.77115   5.06863   7.93766  -0.00310   0.01140  -0.00000
   N      7.50881   7.24099   7.93766  -0.00311   0.01132  -0.00000
   N      6.27472   9.41307   7.93766  -0.00306   0.01133  -0.00000
   N      5.01069  11.56786   7.93766  -0.00306   0.01138  -0.00000
   N     13.78702   0.71807   7.93766  -0.00306   0.01140  -0.00000
   N     12.53560   2.89375   7.93766  -0.00308   0.01139  -0.00000
   N     11.28117   5.06650   7.93766  -0.00312   0.01138  -0.00000
   N     10.02269   7.23810   7.93766  -0.00311   0.01135   0.00000
   N      8.77545   9.40922   7.93766  -0.00310   0.01134   0.00000
   N      7.52175  11.58070   7.93766  -0.00307   0.01138  -0.00000
   C      3.75988   7.96113   7.93766  -0.00307   0.01129  -0.00000
   C      2.56706   7.27245   7.93766  -0.00308   0.01130  -0.00000
PRIMCOORD  4
     72   1
   B     -0.00210   1.44534   7.93766  -0.00000  -0.00000  -0.01045
   B     -1.25272   3.62051   7.93766  -0.00000  -0.00000  -0.01206
   B     -2.50550   5.79040   7.93766  -0.00000  -0.00000  -0.01205
   B     -3.76395   7.96105   7.93766  -0.00000  -0.00000  -0.01044
   B     -5.01331  10.13344   7.93766  -0.00000  -0.00000  -0.00934
   B     -6.26734  12.30548   7.93766  -0.00000  -0.00000  -0.00935
   B      2.50705   1.44511   7.93766  -0.00000  -0.00000  -0.00998
   B      1.25282   3.61722   7.93766  -0.00000  -0.00000  -0.01349
   B      0.00968   5.79595   7.93766  -0.00000  -0.00000  -0.01589
   B     -1.25557   7.96190   7.93766  -0.00000  -0.00000  -0.01347
   B     -2.50956  10.13416   7.93766  -0.00000  -0.00000  -0.00996
   B     -3.76113  12.30442   7.93766  -0.00000  -0.00000  -0.00876
   B      5.01691   1.44359   7.93766  -0.00000  -0.00000  -0.00891
   B      3.76741   3.60253   7.93766  -0.00000  -0.00000  -0.01224
   B      2.52754   5.76960   7.93766  -0.00000  -0.00000  -0.01795
   B      1.24579   7.98966   7.93766  -0.00000  -0.00000  -0.01794
   B     -0.01100  10.14695   7.93766  -0.00000  -0.00000  -0.01222
   B     -1.25595  12.30852   7.93766  -0.00000  -0.00000  -0.00890
   B      7.52305   1.44825   7.93766  -0.00000  -0.00000  -0.00884
   B      6.26583   3.62416   7.93766  -0.00000  -0.00000  -0.01012
   B      4.99703   5.79424   7.93766  -0.00000  -0.00000  -0.01424
   B      2.50188  10.11597   7.93766  -0.00000  -0.00000  -0.01424
   B      1.25694  12.29983   7.93766  -0.00000  -0.00000  -0.01012
   B     10.02942   1.44632   7.93766  -0.00000  -0.00000  -0.00962
   B      8.77456   3.61979   7.93766  -0.00000  -0.00000  -0.00961
   B      7.51725   5.79205   7.93766  -0.00000  -0.00000  -0.01074
   B      6.26439   7.97455   7.93766  -0.00000  -0.00000  -0.01284
   B      5.02376  10.12338   7.93766  -0.00000  -0.00000  -0.01284
   B      3.76010  12.29964   7.93766  -0.00000  -0.00000  -0.01074
   B     12.53535   1.44619   7.93766  -0.00000  -0.00000  -0.01022
   B     11.28237   3.61870   7.93766  -0.00000  -0.00000  -0.01053
   B     10.02742   5.79007   7.93766  -0.00000  -0.00000  -0.01021
   B      8.77037   7.96217   7.93766  -0.00000  -0.00000  -0.01013
   B      7.52926  10.13738   7.93766  -0.00000  -0.00000  -0.01041
   B      6.26603  12.29982   7.93766  -0.00000  -0.00000  -0.01014
   N      1.25249   0.72173   7.93766  -0.00000  -0.00000  -0.00962
   N     -0.00199   2.89087   7.93766  -0.00000  -0.00000  -0.01176
   N     -1.25054   5.06836   7.93766  -0.00000  -0.00000  -0.01323
   N     -2.51202   7.23839   7.93766  -0.00000  -0.00000  -0.01174
   N     -3.76330   9.40936   7.93766  -0.00000  -0.00000  -0.00960
   N     -5.01530  11.58032   7.93766  -0.00000  -0.00000  -0.00896
   N      3.76169   0.72217   7.93766  -0.00000  -0.00000  -0.00878
   N      2.50868   2.88913   7.93766  -0.00000  -0.00000  -0.01170
   N      1.25865   5.05857   7.93766  -0.00000  -0.00000  -0.01636
   N     -0.00442   7.24628   7.93766  -0.00000  -0.00000  -0.01634
   N     -1.25819   9.41356   7.93766  -0.00000  -0.00000  -0.01168
   N     -2.50832  11.58218   7.93766  -0.00000  -0.00000  -0.00877
   N      6.26983   0.72471   7.93766  -0.00000  -0.00000  -0.00838
   N      5.02089   2.88831   7.93766  -0.00000  -0.00000  -0.00986
   N      3.77420   5.04389   7.93766  -0.00000  -0.00000  -0.01495
   N      1.24065   9.43215   7.93766  -0.00000  -0.00000  -0.01494
   N     -0.00279  11.58960   7.93766  -0.00000  -0.00000  -0.00984
   N      8.77787   0.72104   7.93766  -0.00000  -0.00000  -0.00908
   N      7.52068   2.89857   7.93766  -0.00000  -0.00000  -0.00908
   N      6.26032   5.07949   7.93766  -0.00000  -0.00000  -0.01138
   N      4.98795   7.27153   7.93766  -0.00000  -0.00000  -0.01528
   N      3.77671   9.36947   7.93766  -0.00000  -0.00000  -0.01528
   N      2.51453  11.56740   7.93766  -0.00000  -0.00000  -0.01138
   N     11.28244   0.71894   7.93766  -0.00000  -0.00000  -0.00981
   N     10.02805   2.89451   7.93766  -0.00000  -0.00000  -0.00978
   N      8.77115   5.06863   7.93766  -0.00000  -0.00000  -0.00981
   N      7.50881   7.24099   7.93766  -0.00000  -0.00000  -0.01086
   N      6.27472   9.41307   7.93766  -0.00000  -0.00000  -0.01196
   N      5.01069  11.56786   7.93766  -0.00000  -0.00000  -0.01086
   N     13.78702   0.71807   7.93766  -0.00000  -0.00000  -0.00995
   N     12.53560   2.89375   7.93766  -0.00000  -0.00000  -0.01067
   N     11.28117   5.06650   7.93766  -0.00000  -0.00000  -0.01067
   N     10.02269   7.23810   7.93766  -0.00000  -0.00000  -0.00994
   N      8.77545   9.40922   7.93766  -0.00000  -0.00000  -0.00967
   N      7.52175  11.58070   7.93766  -0.00000  -0.00000  -0.00968
   C      3.75988   7.96113   7.93766  -0.00000  -0.00000  -0.01737
   C      2.56706   7.27245   7.93766  -0.00000  -0.00000  -0.01988
PRIMCOORD  5
     72   1
   B     -0.00210   1.44534   7.93766  -0.00000   0.00000   0.00240
   B     -1.25272   3.62051   7.93766   0.00000   0.00000   0.01806
   B     -2.50550   5.79040   7.93766   0.00000   0.00000   0.01813
   B     -3.76395   7.96105   7.93766   0.00000   0.00000   0.00253
   B     -5.01331  10.13344   7.93766   0.00000   0.00000  -0.01348
   B     -6.26734  12.30548   7.93766  -0.00000   0.00000  -0.01355
   B      2.50705   1.44511   7.93766   0.00000   0.00000  -0.01526
   B      1.25282   3.61722   7.93766   0.00000   0.00000   0.00093
   B      0.00968   5.79595   7.93766   0.00000   0.00000   0.00878
   B     -1.25557   7.96190   7.93766   0.00000   0.00000   0.00106
   B     -2.50956  10.13416   7.93766   0.00000   0.00000  -0.01513
   B     -3.76113  12.30442   7.93766   0.00000   0.00000  -0.02393
   B      5.01691   1.44359   7.93766   0.00000   0.00000  -0.01872
   B      3.76741   3.60253   7.93766   0.00000   0.00000  -0.00977
   B      2.52754   5.76960   7.93766   0.00000   0.00000  -0.00115
   B      1.24579   7.98966   7.93766   0.00000   0.00000  -0.00108
   B     -0.01100  10.14695   7.93766   0.00000   0.00000  -0.00964
   B     -1.25595  12.30852   7.93766   0.00000   0.00000  -0.01866
   B      7.52305   1.44825   7.93766   0.00000   0.00000  -0.00446
   B      6.26583   3.62416   7.93766   0.00000   0.00000  -0.00391
   B      4.99703   5.79424   7.93766   0.00000   0.00000  -0.00285
   B      2.50188  10.11597   7.93766   0.00000   0.00000  -0.00279
   B      1.25694  12.29983   7.93766   0.00000   0.00000  -0.00385
   B     10.02942   1.44632   7.93766   0.00000   0.00000   0.01368
   B      8.77456   3.61979   7.93766   0.00000   0.00000   0.01368
   B      7.51725   5.79205   7.93766   0.00000   0.00000   0.00609
   B      6.26439   7.97455   7.93766   0.00000   0.00000  -0.00091
   B      5.02376  10.12338   7.93766   0.00000   0.00000  -0.00091
   B      3.76010  12.29964   7.93766   0.00000   0.00000   0.00609
   B     12.53535   1.44619   7.93766  -0.00000   0.00000   0.01685
   B     11.28237   3.61870   7.93766   0.00000   0.00000   0.02511
   B     10.02742   5.79007   7.93766   0.00000   0.00000   0.01691
   B      8.77037   7.96217   7.93766   0.00000   0.00000   0.00151
   B      7.52926  10.13738   7.93766   0.00000   0.00000  -0.00615
   B      6.26603  12.29982   7.93766   0.00000   0.00000   0.00144
   N      1.25249   0.72173   7.93766  -0.00000   0.00000  -0.01039
   N     -0.00199   2.89087   7.93766   0.00000   0.00000   0.00830
   N     -1.25054   5.06836   7.93766   0.00000   0.00000   0.01754
   N     -2.51202   7.23839   7.93766   0.00000   0.00000   0.00843
   N     -3.76330   9.40936   7.93766   0.00000   0.00000  -0.01027
   N     -5.01530  11.58032   7.93766   0.00000   0.00000  -0.02054
   N      3.76169   0.72217   7.93766   0.00000   0.00000  -0.02296
   N      2.50868   2.88913   7.93766   0.00000   0.00000  -0.00928
   N      1.25865   5.05857   7.93766   0.00000   0.00000   0.00336
   N     -0.00442   7.24628   7.93766   0.00000   0.00000   0.00343
   N     -1.25819   9.41356   7.93766   0.00000   0.00000  -0.00913
   N     -2.50832  11.58218   7.93766   0.00000   0.00000  -0.02288
   N      6.26983   0.72471   7.93766   0.00000   0.00000  -0.01669
   N      5.02089   2.88831   7.93766   0.00000   0.00000  -0.01257
   N      3.77420   5.04389   7.93766   0.00000   0.00000  -0.00507
   N      1.24065   9.43215   7.93766   0.00000   0.00000  -0.00497
   N     -0.00279  11.58960   7.93766   0.00000   0.00000  -0.01247
   N      8.77787   0.72104   7.93766   0.00000   0.00000   0.00196
   N      7.52068   2.89857   7.93766   0.00000   0.00000   0.00193
   N      6.26032   5.07949   7.93766   0.00000   0.00000  -0.00015
   N      4.98795   7.27153   7.93766   0.00000   0.00000  -0.00180
   N      3.77671   9.36947   7.93766   0.00000   0.00000  -0.00178
   N      2.51453  11.56740   7.93766   0.00000   0.00000  -0.00010
   N     11.28244   0.71894   7.93766  -0.00000   0.00000   0.01432
   N     10.02805   2.89451   7.93766   0.00000   0.00000   0.02111
   N      8.77115   5.06863   7.93766   0.00000   0.00000   0.01435
   N      7.50881   7.24099   7.93766   0.00000   0.00000   0.00287
   N      6.27472   9.41307   7.93766   0.00000   0.00000  -0.00276
   N      5.01069  11.56786   7.93766  -0.00000   0.00000   0.00285
   N     13.78702   0.71807   7.93766   0.00000   0.00000   0.00806
   N     12.53560   2.89375   7.93766   0.00000   0.00000   0.02353
   N     11.28117   5.06650   7.93766   0.00000   0.00000   0.02358
   N     10.02269   7.23810   7.93766   0.00000   0.00000   0.00816
   N      8.77545   9.40922   7.93766   0.00000   0.00000  -0.00691
   N      7.52175  11.58070   7.93766   0.00000   0.00000  -0.00696
   C      3.75988   7.96113   7.93766   0.00000   0.00000  -0.00200
   C      2.56706   7.27245   7.93766   0.00000   0.00000  -0.00103
PRIMCOORD  6
     72   1
   B     -0.00210   1.44534   7.93766   0.00000  -0.00000  -0.02109
   B     -1.25272   3.62051   7.93766   0.00000  -0.00000  -0.01061
   B     -2.50550   5.79040   7.93766   0.00000  -0.00000   0.01035
   B     -3.76395   7.96105   7.93766   0.00000  -0.00000   0.02097
   B     -5.01331  10.13344   7.93766   0.00000  -0.00000   0.01051
   B     -6.26734  12.30548   7.93766   0.00000  -0.00000  -0.01049
   B      2.50705   1.44511   7.93766  -0.00000  -0.00000  -0.02017
   B      1.25282   3.61722   7.93766   0.00000  -0.00000  -0.01999
   B      0.00968   5.79595   7.93766   0.00000  -0.00000  -0.00010
   B     -1.25557   7.96190   7.93766   0.00000  -0.00000   0.01984
   B     -2.50956  10.13416   7.93766  -0.00000  -0.00000   0.02018
   B     -3.76113  12.30442   7.93766   0.00000  -0.00000   0.00005
   B      5.01691   1.44359   7.93766  -0.00000  -0.00000  -0.00940
   B      3.76741   3.60253   7.93766   0.00000  -0.00000  -0.01891
   B      2.52754   5.76960   7.93766   0.00000  -0.00000  -0.00927
   B      1.24579   7.98966   7.93766   0.00000  -0.00000   0.00927
   B     -0.01100  10.14695   7.93766   0.00000  -0.00000   0.01897
   B     -1.25595  12.30852   7.93766   0.00000  -0.00000   0.00956
   B      7.52305   1.44825   7.93766   0.00000  -0.00000   0.00009
   B      6.26583   3.62416   7.93766   0.00000  -0.00000  -0.00811
   B      4.99703   5.79424   7.93766   0.00000  -0.00000  -0.00823
   B      2.50188  10.11597   7.93766   0.00000  -0.00000   0.00837
   B      1.25694  12.29983   7.93766   0.00000  -0.00000   0.00827
   B     10.02942   1.44632   7.93766   0.00000  -0.00000  -0.00103
   B      8.77456   3.61979   7.93766   0.00000  -0.00000   0.00107
   B      7.51725   5.79205   7.93766   0.00000  -0.00000   0.00209
   B      6.26439   7.97455   7.93766   0.00000  -0.00000   0.00114
   B      5.02376  10.12338   7.93766  -0.00000  -0.00000  -0.00100
   B      3.76010  12.29964   7.93766   0.00000  -0.00000  -0.00200
   B     12.53535   1.44619   7.93766   0.00000  -0.00000  -0.01145
   B     11.28237   3.61870   7.93766   0.00000  -0.00000  -0.00008
   B     10.02742   5.79007   7.93766   0.00000  -0.00000   0.01134
   B      8.77037   7.96217   7.93766   0.00000  -0.00000   0.01128
   B      7.52926  10.13738   7.93766  -0.00000  -0.00000   0.00004
   B      6.26603  12.29982   7.93766   0.00000  -0.00000  -0.01127
   N      1.25249   0.72173   7.93766   0.00000  -0.00000  -0.02032
   N     -0.00199   2.89087   7.93766   0.00000  -0.00000  -0.02040
   N     -1.25054   5.06836   7.93766   0.00000  -0.00000  -0.00014
   N     -2.51202   7.23839   7.93766   0.00000  -0.00000   0.02020
   N     -3.76330   9.40936   7.93766   0.00000  -0.00000   0.02028
   N     -5.01530  11.58032   7.93766   0.00000  -0.00000   0.00003
   N      3.76169   0.72217   7.93766  -0.00000  -0.00000  -0.01180
   N      2.50868   2.88913   7.93766   0.00000  -0.00000  -0.02340
   N      1.25865   5.05857   7.93766   0.00000  -0.00000  -0.01134
   N     -0.00442   7.24628   7.93766  -0.00000  -0.00000   0.01120
   N     -1.25819   9.41356   7.93766  -0.00000  -0.00000   0.02336
   N     -2.50832  11.58218   7.93766   0.00000  -0.00000   0.01190
   N      6.26983   0.72471   7.93766   0.00000  -0.00000   0.00010
   N      5.02089   2.88831   7.93766   0.00000  -0.00000  -0.01448
   N      3.77420   5.04389   7.93766   0.00000  -0.00000  -0.01464
   N      1.24065   9.43215   7.93766   0.00000  -0.00000   0.01471
   N     -0.00279  11.58960   7.93766   0.00000  -0.00000   0.01463
   N      8.77787   0.72104   7.93766   0.00000  -0.00000   0.00302
   N      7.52068   2.89857   7.93766   0.00000  -0.00000  -0.00287
   N      6.26032   5.07949   7.93766   0.00000  -0.00000  -0.00587
   N      4.98795   7.27153   7.93766  -0.00000  -0.00000  -0.00275
   N      3.77671   9.36947   7.93766   0.00000  -0.00000   0.00291
   N      2.51453  11.56740   7.93766   0.00000  -0.00000   0.00602
   N     11.28244   0.71894   7.93766   0.00000  -0.00000  -0.00534
   N     10.02805   2.89451   7.93766   0.00000  -0.00000  -0.00002
   N      8.77115   5.06863   7.93766   0.00000  -0.00000   0.00535
   N      7.50881   7.24099   7.93766   0.00000  -0.00000   0.00526
   N      6.27472   9.41307   7.93766  -0.00000  -0.00000   0.00007
   N      5.01069  11.56786   7.93766   0.00000  -0.00000  -0.00517
   N     13.78702   0.71807   7.93766   0.00000  -0.00000  -0.01690
   N     12.53560   2.89375   7.93766   0.00000  -0.00000  -0.00860
   N     11.28117   5.06650   7.93766   0.00000  -0.00000   0.00839
   N     10.02269   7.23810   7.93766   0.00000  -0.00000   0.01681
   N      8.77545   9.40922   7.93766   0.00000  -0.00000   0.00840
   N      7.52175  11.58070   7.93766   0.00000  -0.00000  -0.00836
   C      3.75988   7.96113   7.93766  -0.00000  -0.00000   0.00007
   C      2.56706   7.27245   7.93766   0.00000  -0.00000   0.00003
PRIMCOORD  7
     72   1
   B     -0.00210   1.44534   7.93766  -0.00000  -0.00000  -0.01278
   B     -1.25272   3.62051   7.93766  -0.00000  -0.00000  -0.00812
   B     -2.50550   5.79040   7.93766  -0.00000  -0.00000  -0.00818
   B     -3.76395   7.96105   7.93766  -0.00000  -0.00000  -0.01290