
     Program PHONON v.6.1 (svn rev. 13369) starts on 11Feb2021 at  1:30:53 

     This program is part of the open-source Quantum ESPRESSO suite
     for quantum simulation of materials; please cite
         "P. Giannozzi et al., J. Phys.:Condens. Matter 21 395502 (2009);
          URL http://www.quantum-espresso.org", 
     in publications or presentations arising from this work. More details at
     http://www.quantum-espresso.org/quote

     Parallel version (MPI), running on   160 processors
     K-points division:     npool     =       2
     R & G space division:  proc/nbgrp/npool/nimage =      80

     Reading data from directory:
     ../temp/BN.save

   Info: using nr1, nr2, nr3 values from input

   Info: using nr1, nr2, nr3 values from input

     IMPORTANT: XC functional enforced from input :
     Exchange-correlation      = PBE ( 1  4  3  4 0 0)
     Any further DFT definition will be discarded
     Please, verify this is what you really want

     Message from routine readpp:
     file ../temp/BN.save/B_ONCV_PBE-1.0.upf not found
     Message from routine readpp:
     file ../temp/BN.save/N_ONCV_PBE-1.0.upf not found
     Message from routine readpp:
     file ../temp/BN.save/C_ONCV_PBE-1.0.upf not found
 
     Parallelization info
     --------------------
     sticks:   dense  smooth     PW     G-vecs:    dense   smooth      PW
     Min         153     153     38                14461    14461    1806
     Max         154     154     39                14464    14464    1813
     Sum       12259   12259   3067              1156971  1156971  144701
 
     Generating pointlists ...
     new r_m :   0.0393 (alat units)  1.1184 (a.u.) for type    1
     new r_m :   0.0386 (alat units)  1.0979 (a.u.) for type    2
     new r_m :   0.0378 (alat units)  1.0737 (a.u.) for type    3

     Calculation of q =    0.0000000   0.0000000   0.0000000

                                                                                

     bravais-lattice index     =            0
     lattice parameter (alat)  =      28.4287  a.u.
     unit-cell volume          =   20997.3881 (a.u.)^3
     number of atoms/cell      =           72
     number of atomic types    =            3
     kinetic-energy cut-off    =      55.0000  Ry
     charge density cut-off    =     220.0000  Ry
     convergence threshold     =      1.0E-15
     beta                      =       0.7000
     number of iterations used =            4
     Exchange-correlation      = PBE ( 1  4  3  4 0 0)


     celldm(1)=   28.42867  celldm(2)=    0.00000  celldm(3)=    0.00000
     celldm(4)=    0.00000  celldm(5)=    0.00000  celldm(6)=    0.00000

     crystal axes: (cart. coord. in units of alat)
               a(1) = (  1.0000  0.0000  0.0000 )  
               a(2) = ( -0.5000  0.8660  0.0000 )  
               a(3) = (  0.0000  0.0000  1.0553 )  

     reciprocal axes: (cart. coord. in units 2 pi/alat)
               b(1) = (  1.0000  0.5773  0.0000 )  
               b(2) = (  0.0000  1.1547  0.0000 )  
               b(3) = (  0.0000  0.0000  0.9476 )  


     Atoms inside the unit cell: 

     Cartesian axes

     site n.  atom      mass           positions (alat units)
        1     B   10.8110   tau(    1) = (   -0.00014    0.09608    0.52764  )
        2     B   10.8110   tau(    2) = (   -0.08327    0.24066    0.52764  )
        3     B   10.8110   tau(    3) = (   -0.16655    0.38490    0.52764  )
        4     B   10.8110   tau(    4) = (   -0.25020    0.52919    0.52764  )
        5     B   10.8110   tau(    5) = (   -0.33325    0.67360    0.52764  )
        6     B   10.8110   tau(    6) = (   -0.41661    0.81798    0.52764  )
        7     B   10.8110   tau(    7) = (    0.16665    0.09606    0.52764  )
        8     B   10.8110   tau(    8) = (    0.08328    0.24045    0.52764  )
        9     B   10.8110   tau(    9) = (    0.00064    0.38527    0.52764  )
       10     B   10.8110   tau(   10) = (   -0.08346    0.52925    0.52764  )
       11     B   10.8110   tau(   11) = (   -0.16682    0.67364    0.52764  )
       12     B   10.8110   tau(   12) = (   -0.25001    0.81791    0.52764  )
       13     B   10.8110   tau(   13) = (    0.33349    0.09596    0.52764  )
       14     B   10.8110   tau(   14) = (    0.25043    0.23947    0.52764  )
       15     B   10.8110   tau(   15) = (    0.16801    0.38352    0.52764  )
       16     B   10.8110   tau(   16) = (    0.08281    0.53109    0.52764  )
       17     B   10.8110   tau(   17) = (   -0.00073    0.67449    0.52764  )
       18     B   10.8110   tau(   18) = (   -0.08349    0.81818    0.52764  )
       19     B   10.8110   tau(   19) = (    0.50008    0.09627    0.52764  )
       20     B   10.8110   tau(   20) = (    0.41651    0.24091    0.52764  )
       21     B   10.8110   tau(   21) = (    0.33217    0.38516    0.52764  )
       22     B   10.8110   tau(   22) = (    0.16631    0.67243    0.52764  )
       23     B   10.8110   tau(   23) = (    0.08355    0.81760    0.52764  )
       24     B   10.8110   tau(   24) = (    0.66668    0.09614    0.52764  )
       25     B   10.8110   tau(   25) = (    0.58327    0.24062    0.52764  )
       26     B   10.8110   tau(   26) = (    0.49969    0.38501    0.52764  )
       27     B   10.8110   tau(   27) = (    0.41641    0.53009    0.52764  )
       28     B   10.8110   tau(   28) = (    0.33394    0.67293    0.52764  )
       29     B   10.8110   tau(   29) = (    0.24994    0.81759    0.52764  )
       30     B   10.8110   tau(   30) = (    0.83326    0.09613    0.52764  )
       31     B   10.8110   tau(   31) = (    0.74997    0.24054    0.52764  )
       32     B   10.8110   tau(   32) = (    0.66655    0.38488    0.52764  )
       33     B   10.8110   tau(   33) = (    0.58299    0.52927    0.52764  )
       34     B   10.8110   tau(   34) = (    0.50049    0.67386    0.52764  )
       35     B   10.8110   tau(   35) = (    0.41652    0.81760    0.52764  )
       36     N   14.0067   tau(   36) = (    0.08326    0.04798    0.52764  )
       37     N   14.0067   tau(   37) = (   -0.00013    0.19216    0.52764  )
       38     N   14.0067   tau(   38) = (   -0.08313    0.33691    0.52764  )
       39     N   14.0067   tau(   39) = (   -0.16698    0.48115    0.52764  )
       40     N   14.0067   tau(   40) = (   -0.25016    0.62546    0.52764  )
       41     N   14.0067   tau(   41) = (   -0.33338    0.76977    0.52764  )
       42     N   14.0067   tau(   42) = (    0.25005    0.04800    0.52764  )
       43     N   14.0067   tau(   43) = (    0.16676    0.19205    0.52764  )
       44     N   14.0067   tau(   44) = (    0.08367    0.33626    0.52764  )
       45     N   14.0067   tau(   45) = (   -0.00029    0.48168    0.52764  )
       46     N   14.0067   tau(   46) = (   -0.08364    0.62574    0.52764  )
       47     N   14.0067   tau(   47) = (   -0.16673    0.76990    0.52764  )
       48     N   14.0067   tau(   48) = (    0.41677    0.04817    0.52764  )
       49     N   14.0067   tau(   49) = (    0.33375    0.19199    0.52764  )
       50     N   14.0067   tau(   50) = (    0.25088    0.33528    0.52764  )
       51     N   14.0067   tau(   51) = (    0.08247    0.62698    0.52764  )
       52     N   14.0067   tau(   52) = (   -0.00019    0.77039    0.52764  )
       53     N   14.0067   tau(   53) = (    0.58349    0.04793    0.52764  )
       54     N   14.0067   tau(   54) = (    0.49992    0.19268    0.52764  )
       55     N   14.0067   tau(   55) = (    0.41614    0.33765    0.52764  )
       56     N   14.0067   tau(   56) = (    0.33156    0.48336    0.52764  )
       57     N   14.0067   tau(   57) = (    0.25105    0.62281    0.52764  )
       58     N   14.0067   tau(   58) = (    0.16715    0.76891    0.52764  )
       59     N   14.0067   tau(   59) = (    0.74997    0.04779    0.52764  )
       60     N   14.0067   tau(   60) = (    0.66659    0.19241    0.52764  )
       61     N   14.0067   tau(   61) = (    0.58304    0.33692    0.52764  )
       62     N   14.0067   tau(   62) = (    0.49913    0.48133    0.52764  )
       63     N   14.0067   tau(   63) = (    0.41710    0.62571    0.52764  )
       64     N   14.0067   tau(   64) = (    0.33307    0.76895    0.52764  )
       65     N   14.0067   tau(   65) = (    0.91646    0.04773    0.52764  )
       66     N   14.0067   tau(   66) = (    0.83327    0.19235    0.52764  )
       67     N   14.0067   tau(   67) = (    0.74989    0.33678    0.52764  )
       68     N   14.0067   tau(   68) = (    0.66623    0.48114    0.52764  )
       69     N   14.0067   tau(   69) = (    0.58333    0.62545    0.52764  )
       70     N   14.0067   tau(   70) = (    0.49999    0.76980    0.52764  )
       71     C   12.0107   tau(   71) = (    0.24993    0.52920    0.52764  )
       72     C   12.0107   tau(   72) = (    0.17064    0.48342    0.52764  )

     Computing dynamical matrix for 
                    q = (   0.0000000   0.0000000   0.0000000 )
 
      3 Sym.Ops. (with q -> -q+G )

                                    s                        frac. trans.

      isym =  1     identity                                     

 cryst.   s( 1) = (     1          0          0      )
                  (     0          1          0      )
                  (     0          0          1      )

 cart.    s( 1) = (  1.0000000 -0.0000000  0.0000000 )
                  (  0.0000000  1.0000000  0.0000000 )
                  (  0.0000000  0.0000000  1.0000000 )


      isym =  2     inv. 180 deg rotation - cart. axis [0,0,1]   

 cryst.   s( 2) = (     1          0          0      )
                  (     0          1          0      )
                  (     0          0         -1      )

 cart.    s( 2) = (  1.0000000 -0.0000000  0.0000000 )
                  (  0.0000000  1.0000000  0.0000000 )
                  (  0.0000000  0.0000000 -1.0000000 )


     This transformation sends q -> -q+G

      isym =  3     identity                                     

 cryst.   s( 3) = (     1          0          0      )
                  (     0          1          0      )
                  (     0          0          1      )

 cart.    s( 3) = (  1.0000000 -0.0000000  0.0000000 )
                  (  0.0000000  1.0000000  0.0000000 )
                  (  0.0000000  0.0000000  1.0000000 )


     G cutoff = 4503.7670  (  14464 G-vectors)     FFT grid: (135,135,144)
     number of k points=     2
                       cart. coord. in units 2pi/alat
        k(    1) = (   0.0000000   0.0000000   0.0000000), wk =   1.0000000
        k(    2) = (   0.0000000   0.0000000   0.0000000), wk =   1.0000000

                       cryst. coord.
        k(    1) = (   0.0000000   0.0000000   0.0000000), wk =   1.0000000
        k(    2) = (   0.0000000   0.0000000   0.0000000), wk =   1.0000000

     PseudoPot. # 1 for B  read from file:
     ~/pseudo-ONCV-proj/B_ONCV_PBE-1.0.upf
     MD5 check sum: Not computed, couldn't open file
     Pseudo is Norm-conserving, Zval =  3.0
     Generated using ONCVPSP code by D. R. Hamann
     Using radial grid of 1534 points,  4 beta functions with: 
                l(1) =   0
                l(2) =   0
                l(3) =   1
                l(4) =   1

     PseudoPot. # 2 for N  read from file:
     ~/pseudo-ONCV-proj/N_ONCV_PBE-1.0.upf
     MD5 check sum: Not computed, couldn't open file
     Pseudo is Norm-conserving, Zval =  5.0
     Generated using ONCVPSP code by D. R. Hamann
     Using radial grid of 1058 points,  4 beta functions with: 
                l(1) =   0
                l(2) =   0
                l(3) =   1
                l(4) =   1

     PseudoPot. # 3 for C  read from file:
     ~/pseudo-ONCV-proj/C_ONCV_PBE-1.0.upf
     MD5 check sum: Not computed, couldn't open file
     Pseudo is Norm-conserving, Zval =  4.0
     Generated using ONCVPSP code by D. R. Hamann
     Using radial grid of 1248 points,  4 beta functions with: 
                l(1) =   0
                l(2) =   0
                l(3) =   1
                l(4) =   1

     point group C_s (m)    
     there are  2 classes
     the character table:

       E     s    
A'     1.00  1.00
A''    1.00 -1.00

     the symmetry operations in each class and the name of the first element:

     E        1
                                                                 
     s        2
                                                                 

     k=gamma and q=gamma tricks are used


     Electric field:
     Dielectric constant and polarizability
     Born effective charges as d Force / d E


     Atomic displacements:
     There are 216 irreducible representations

     Representation     1      1 modes -A  To be done
     Irreps are as follows:

                     mode #   1
                     (   1.00000   0.00000   ) 
                     (   0.00000   0.00000   ) 
                     (   0.00000   0.00000   ) 
                     (   0.00000   0.00000   ) 
                     (   0.00000   0.00000   ) 
                     (   0.00000   0.00000   ) 
                     (   0.00000   0.00000   ) 
                     (   0.00000   0.00000   ) 
                     (   0.00000   0.00000   ) 
                     (   0.00000   0.00000   ) 
                     (   0.00000   0.00000   ) 
                     (   0.00000   0.00000   ) 
                     (   0.00000   0.00000   ) 
                     (   0.00000   0.00000   ) 
                     (   0.00000   0.00000   ) 
                     (   0.00000   0.00000   ) 
                     (   0.00000   0.00000   ) 
                     (   0.00000   0.00000   ) 
                     (   0.00000   0.00000   ) 
                     (   0.00000   0.00000   ) 
                     (   0.00000   0.00000   ) 
                     (   0.00000   0.00000   ) 
                     (   0.00000   0.00000   ) 
                     (   0.00000   0.00000   ) 
                     (   0.00000   0.00000   ) 
                     (   0.00000   0.00000   ) 
                     (   0.00000   0.00000   ) 
                     (   0.00000   0.00000   ) 
                     (   0.00000   0.00000   ) 
                     (   0.00000   0.00000   ) 
                     (   0.00000   0.00000   ) 
                     (   0.00000   0.00000   ) 
                     (   0.00000   0.00000   ) 
                     (   0.00000   0.00000   ) 
                     (   0.00000   0.00000   ) 
                     (   0.00000   0.00000   ) 
                     (   0.00000   0.00000   ) 
                     (   0.00000   0.00000   ) 
                     (   0.00000   0.00000   ) 
                     (   0.00000   0.00000   ) 
                     (   0.00000   0.00000   ) 
                     (   0.00000   0.00000   ) 
                     (   0.00000   0.00000   ) 
                     (   0.00000   0.00000   ) 
                     (   0.00000   0.00000   ) 
                     (   0.00000   0.00000   ) 
                     (   0.00000   0.00000   ) 
                     (   0.00000   0.00000   ) 
                     (   0.00000   0.00000   ) 
                     (   0.00000   0.00000   ) 
                     (   0.00000   0.00000   ) 
                     (   0.00000   0.00000   ) 
                     (   0.00000   0.00000   ) 
                     (   0.00000   0.00000   ) 
                     (   0.00000   0.00000   ) 
                     (   0.00000   0.00000   ) 
                     (   0.00000   0.00000   ) 
                     (   0.00000   0.00000   ) 
                     (   0.00000   0.00000   ) 
                     (   0.00000   0.00000   ) 
                     (   0.00000   0.00000   ) 
                     (   0.00000   0.00000   ) 
                     (   0.00000   0.00000   ) 
                     (   0.00000   0.00000   ) 
                     (   0.00000   0.00000   ) 
                     (   0.00000   0.00000   ) 
                     (   0.00000   0.00000   ) 
                     (   0.00000   0.00000   ) 
                     (   0.00000   0.00000   ) 
                     (   0.00000   0.00000   ) 
                     (   0.00000   0.00000   ) 
                     (   0.00000   0.00000   ) 
                     (   0.00000   0.00000   ) 
                     (   0.00000   0.00000   ) 
                     (   0.00000   0.00000   ) 
                     (   0.00000   0.00000   ) 
                     (   0.00000   0.00000   ) 
                     (   0.00000   0.00000   ) 
                     (   0.00000   0.00000   ) 
                     (   0.00000   0.00000   ) 
                     (   0.00000   0.00000   ) 
                     (   0.00000   0.00000   ) 
                     (   0.00000   0.00000   ) 
                     (   0.00000   0.00000   ) 
                     (   0.00000   0.00000   ) 
                     (   0.00000   0.00000   ) 
                     (   0.00000   0.00000   ) 
                     (   0.00000   0.00000   ) 
                     (   0.00000   0.00000   ) 
                     (   0.00000   0.00000   ) 
                     (   0.00000   0.00000   ) 
                     (   0.00000   0.00000   ) 
                     (   0.00000   0.00000   ) 
                     (   0.00000   0.00000   ) 
                     (   0.00000   0.00000   ) 
                     (   0.00000   0.00000   ) 
                     (   0.00000   0.00000   ) 
                     (   0.00000   0.00000   ) 
                     (   0.00000   0.00000   ) 
                     (   0.00000   0.00000   ) 
                     (   0.00000   0.00000   ) 
                     (   0.00000   0.00000   ) 
                     (   0.00000   0.00000   ) 
                     (   0.00000   0.00000   ) 
                     (   0.00000   0.00000   ) 
                     (   0.00000   0.00000   ) 
                     (   0.00000   0.00000   ) 
                     (   0.00000   0.00000   ) 
                     (   0.00000   0.00000   ) 
                     (   0.00000   0.00000   ) 
                     (   0.00000   0.00000   ) 
                     (   0.00000   0.00000   ) 
                     (   0.00000   0.00000   ) 
                     (   0.00000   0.00000   ) 
                     (   0.00000   0.00000   ) 
                     (   0.00000   0.00000   ) 
                     (   0.00000   0.00000   ) 
                     (   0.00000   0.00000   ) 
                     (   0.00000   0.00000   ) 
                     (   0.00000   0.00000   ) 
                     (   0.00000   0.00000   ) 
                     (   0.00000   0.00000   ) 
                     (   0.00000   0.00000   ) 
                     (   0.00000   0.00000   ) 
                     (   0.00000   0.00000   ) 
                     (   0.00000   0.00000   ) 
                     (   0.00000   0.00000   ) 
                     (   0.00000   0.00000   ) 
                     (   0.00000   0.00000   ) 
                     (   0.00000   0.00000   ) 
                     (   0.00000   0.00000   ) 
                     (   0.00000   0.00000   ) 
                     (   0.00000   0.00000   ) 
                     (   0.00000   0.00000   ) 
                     (   0.00000   0.00000   ) 
                     (   0.00000   0.00000   ) 
                     (   0.00000   0.00000   ) 
                     (   0.00000   0.00000   ) 
                     (   0.00000   0.00000   ) 
                     (   0.00000   0.00000   ) 
                     (   0.00000   0.00000   ) 
                     (   0.00000   0.00000   ) 
                     (   0.00000   0.00000   ) 
                     (   0.00000   0.00000   ) 
                     (   0.00000   0.00000   ) 
                     (   0.00000   0.00000   ) 
                     (   0.00000   0.00000   ) 
                     (   0.00000   0.00000   ) 
                     (   0.00000   0.00000   ) 
                     (   0.00000   0.00000   ) 
                     (   0.00000   0.00000   ) 
                     (   0.00000   0.00000   ) 
                     (   0.00000   0.00000   ) 
                     (   0.00000   0.00000   ) 
                     (   0.00000   0.00000   ) 
                     (   0.00000   0.00000   ) 
                     (   0.00000   0.00000   ) 
                     (   0.00000   0.00000   ) 
                     (   0.00000   0.00000   ) 
                     (   0.00000   0.00000   ) 
                     (   0.00000   0.00000   ) 
                     (   0.00000   0.00000   ) 
                     (   0.00000   0.00000   ) 
                     (   0.00000   0.00000   ) 
                     (   0.00000   0.00000   ) 
                     (   0.00000   0.00000   ) 
                     (   0.00000   0.00000   ) 
                     (   0.00000   0.00000   ) 
                     (   0.00000   0.00000   ) 
                     (   0.00000   0.00000   ) 
                     (   0.00000   0.00000   ) 
                     (   0.00000   0.00000   ) 
                     (   0.00000   0.00000   ) 
                     (   0.00000   0.00000   ) 
                     (   0.00000   0.00000   ) 
                     (   0.00000   0.00000   ) 
                     (   0.00000   0.00000   ) 
                     (   0.00000   0.00000   ) 
                     (   0.00000   0.00000   ) 
                     (   0.00000   0.00000   ) 
                     (   0.00000   0.00000   ) 
                     (   0.00000   0.00000   ) 
                     (   0.00000   0.00000   ) 
                     (   0.00000   0.00000   ) 
                     (   0.00000   0.00000   ) 
                     (   0.00000   0.00000   ) 
                     (   0.00000   0.00000   ) 
                     (   0.00000   0.00000   ) 
                     (   0.00000   0.00000   ) 
                     (   0.00000   0.00000   ) 
                     (   0.00000   0.00000   ) 
                     (   0.00000   0.00000   ) 
                     (   0.00000   0.00000   ) 
                     (   0.00000   0.00000   ) 
                     (   0.00000   0.00000   ) 
                     (   0.00000   0.00000   ) 
                     (   0.00000   0.00000   ) 
                     (   0.00000   0.00000   ) 
                     (   0.00000   0.00000   ) 
                     (   0.00000   0.00000   ) 
                     (   0.00000   0.00000   ) 
                     (   0.00000   0.00000   ) 
                     (   0.00000   0.00000   ) 
                     (   0.00000   0.00000   ) 
                     (   0.00000   0.00000   ) 
                     (   0.00000   0.00000   ) 
                     (   0.00000   0.00000   ) 
                     (   0.00000   0.00000   ) 
                     (   0.00000   0.00000   ) 
                     (   0.00000   0.00000   ) 
                     (   0.00000   0.00000   ) 
                     (   0.00000   0.00000   ) 
                     (   0.00000   0.00000   ) 
                     (   0.00000   0.00000   ) 
                     (   0.00000   0.00000   ) 
                     (   0.00000   0.00000   ) 

     Representation     2      1 modes -A  To be done
     Irreps are as follows:

                     mode #   2
                     (   0.00000   0.00000   ) 
                     (   1.00000   0.00000   ) 
                     (   0.00000   0.00000   ) 
                     (   0.00000   0.00000   ) 
                     (   0.00000   0.00000   ) 
                     (   0.00000   0.00000   ) 
                     (   0.00000   0.00000   ) 
                     (   0.00000   0.00000   ) 
                     (   0.00000   0.00000   ) 
                     (   0.00000   0.00000   ) 
                     (   0.00000   0.00000   ) 
                     (   0.00000   0.00000   ) 
                     (   0.00000   0.00000   ) 
                     (   0.00000   0.00000   ) 
                     (   0.00000   0.00000   ) 
                     (   0.00000   0.00000   ) 
                     (   0.00000   0.00000   ) 
                     (   0.00000   0.00000   ) 
                     (   0.00000   0.00000   ) 
                     (   0.00000   0.00000   ) 
                     (   0.00000   0.00000   ) 
                     (   0.00000   0.00000   ) 
                     (   0.00000   0.00000   ) 
                     (   0.00000   0.00000   ) 
                     (   0.00000   0.00000   ) 
                     (   0.00000   0.00000   ) 
                     (   0.00000   0.00000   ) 
                     (   0.00000   0.00000   ) 
                     (   0.00000   0.00000   ) 
                     (   0.00000   0.00000   ) 
                     (   0.00000   0.00000   ) 
                     (   0.00000   0.00000   ) 
                     (   0.00000   0.00000   ) 
                     (   0.00000   0.00000   ) 
                     (   0.00000   0.00000   ) 
                     (   0.00000   0.00000   ) 
                     (   0.00000   0.00000   ) 
                     (   0.00000   0.00000   ) 
                     (   0.00000   0.00000   ) 
                     (   0.00000   0.00000   ) 
                     (   0.00000   0.00000   ) 
                     (   0.00000   0.00000   ) 
                     (   0.00000   0.00000   ) 
                     (   0.00000   0.00000   ) 
                     (   0.00000   0.00000   ) 
                     (   0.00000   0.00000   ) 
                     (   0.00000   0.00000   ) 
                     (   0.00000   0.00000   ) 
                     (   0.00000   0.00000   ) 
                     (   0.00000   0.00000   ) 
                     (   0.00000   0.00000   ) 
                     (   0.00000   0.00000   ) 
                     (   0.00000   0.00000   ) 
                     (   0.00000   0.00000   ) 
                     (   0.00000   0.00000   ) 
                     (   0.00000   0.00000   ) 
                     (   0.00000   0.00000   ) 
                     (   0.00000   0.00000   ) 
                     (   0.00000   0.00000   ) 
                     (   0.00000   0.00000   ) 
                     (   0.00000   0.00000   ) 
                     (   0.00000   0.00000   ) 
                     (   0.00000   0.00000   ) 
                     (   0.00000   0.00000   ) 
                     (   0.00000   0.00000   ) 
                     (   0.00000   0.00000   ) 
                     (   0.00000   0.00000   ) 
                     (   0.00000   0.00000   ) 
                     (   0.00000   0.00000   ) 
                     (   0.00000   0.00000   ) 
                     (   0.00000   0.00000   ) 
                     (   0.00000   0.00000   ) 
                     (   0.00000   0.00000   ) 
                     (   0.00000   0.00000   ) 
                     (   0.00000   0.00000   ) 
                     (   0.00000   0.00000   ) 
                     (   0.00000   0.00000   ) 
                     (   0.00000   0.00000   ) 
                     (   0.00000   0.00000   ) 
                     (   0.00000   0.00000   ) 
                     (   0.00000   0.00000   ) 
                     (   0.00000   0.00000   ) 
                     (   0.00000   0.00000   ) 
                     (   0.00000   0.00000   ) 
                     (   0.00000   0.00000   ) 
                     (   0.00000   0.00000   ) 
                     (   0.00000   0.00000   ) 
                     (   0.00000   0.00000   ) 
                     (   0.00000   0.00000   ) 
                     (   0.00000   0.00000   ) 
                     (   0.00000   0.00000   ) 
                     (   0.00000   0.00000   ) 
                     (   0.00000   0.00000   ) 
                     (   0.00000   0.00000   ) 
                     (   0.00000   0.00000   ) 
                     (   0.00000   0.00000   ) 
                     (   0.00000   0.00000   ) 
                     (   0.00000   0.00000   ) 
                     (   0.00000   0.00000   ) 
                     (   0.00000   0.00000   ) 
                     (   0.00000   0.00000   ) 
                     (   0.00000   0.00000   ) 
                     (   0.00000   0.00000   ) 
                     (   0.00000   0.00000   ) 
                     (   0.00000   0.00000   ) 
                     (   0.00000   0.00000   ) 
                     (   0.00000   0.00000   ) 
                     (   0.00000   0.00000   ) 
                     (   0.00000   0.00000   ) 
                     (   0.00000   0.00000   ) 
                     (   0.00000   0.00000   ) 
                     (   0.00000   0.00000   ) 
                     (   0.00000   0.00000   ) 
                     (   0.00000   0.00000   ) 
                     (   0.00000   0.00000   ) 
                     (   0.00000   0.00000   ) 
                     (   0.00000   0.00000   ) 
                     (   0.00000   0.00000   ) 
                     (   0.00000   0.00000   ) 
                     (   0.00000   0.00000   ) 
                     (   0.00000   0.00000   ) 
                     (   0.00000   0.00000   ) 
                     (   0.00000   0.00000   ) 
                     (   0.00000   0.00000   ) 
                     (   0.00000   0.00000   ) 
                     (   0.00000   0.00000   ) 
                     (   0.00000   0.00000   ) 
                     (   0.00000   0.00000   ) 
                     (   0.00000   0.00000   ) 
                     (   0.00000   0.00000   ) 
                     (   0.00000   0.00000   ) 
                     (   0.00000   0.00000   ) 
                     (   0.00000   0.00000   ) 
                     (   0.00000   0.00000   ) 
                     (   0.00000   0.00000   ) 
                     (   0.00000   0.00000   ) 
                     (   0.00000   0.00000   ) 
                     (   0.00000   0.00000   ) 
                     (   0.00000   0.00000   ) 
                     (   0.00000   0.00000   ) 
                     (   0.00000   0.00000   ) 
                     (   0.00000   0.00000   ) 
                     (   0.00000   0.00000   ) 
                     (   0.00000   0.00000   ) 
                     (   0.00000   0.00000   ) 
                     (   0.00000   0.00000   ) 
                     (   0.00000   0.00000   ) 
                     (   0.00000   0.00000   ) 
                     (   0.00000   0.00000   ) 
                     (   0.00000   0.00000   ) 
                     (   0.00000   0.00000   ) 
                     (   0.00000   0.00000   ) 
                     (   0.00000   0.00000   ) 
                     (   0.00000   0.00000   ) 
                     (   0.00000   0.00000   ) 
                     (   0.00000   0.00000   ) 
                     (   0.00000   0.00000   ) 
                     (   0.00000   0.00000   ) 
                     (   0.00000   0.00000   ) 
                     (   0.00000   0.00000   ) 
                     (   0.00000   0.00000   ) 
                     (   0.00000   0.00000   ) 
                     (   0.00000   0.00000   ) 
                     (   0.00000   0.00000   ) 
                     (   0.00000   0.00000   ) 
                     (   0.00000   0.00000   ) 
                     (   0.00000   0.00000   ) 
                     (   0.00000   0.00000   ) 
                     (   0.00000   0.00000   ) 
                     (   0.00000   0.00000   ) 
                     (   0.00000   0.00000   ) 
                     (   0.00000   0.00000   ) 
                     (   0.00000   0.00000   ) 
                     (   0.00000   0.00000   ) 
                     (   0.00000   0.00000   ) 
                     (   0.00000   0.00000   ) 
                     (   0.00000   0.00000   ) 
                     (   0.00000   0.00000   ) 
                     (   0.00000   0.00000   ) 
                     (   0.00000   0.00000   ) 
                     (   0.00000   0.00000   ) 
                     (   0.00000   0.00000   ) 
                     (   0.00000   0.00000   ) 
                     (   0.00000   0.00000   ) 
                     (   0.00000   0.00000   ) 
                     (   0.00000   0.00000   ) 
                     (   0.00000   0.00000   ) 
                     (   0.00000   0.00000   ) 
                     (   0.00000   0.00000   ) 
                     (   0.00000   0.00000   ) 
                     (   0.00000   0.00000   ) 
                     (   0.00000   0.00000   ) 
                     (   0.00000   0.00000   ) 
                     (   0.00000   0.00000   ) 
                     (   0.00000   0.00000   ) 
                     (   0.00000   0.00000   ) 
                     (   0.00000   0.00000   ) 
                     (   0.00000   0.00000   ) 
                     (   0.00000   0.00000   ) 
                     (   0.00000   0.00000   ) 
                     (   0.00000   0.00000   ) 
                     (   0.00000   0.00000   ) 
                     (   0.00000   0.00000   ) 
                     (   0.00000   0.00000   ) 
                     (   0.00000   0.00000   ) 
                     (   0.00000   0.00000   ) 
                     (   0.00000   0.00000   ) 
                     (   0.00000   0.00000   ) 
                     (   0.00000   0.00000   ) 
                     (   0.00000   0.00000   ) 
                     (   0.00000   0.00000   ) 
                     (   0.00000   0.00000   ) 
                     (   0.00000   0.00000   ) 
                     (   0.00000   0.00000   ) 
                     (   0.00000   0.00000   ) 
                     (   0.00000   0.00000   ) 

     Representation     3      1 modes -A  To be done
     Irreps are as follows:

                     mode #   3
                     (   0.00000   0.00000   ) 
                     (   0.00000   0.00000   ) 
                     (   1.00000   0.00000   ) 
                     (   0.00000   0.00000   ) 
                     (   0.00000   0.00000   ) 
                     (   0.00000   0.00000   ) 
                     (   0.00000   0.00000   ) 
                     (   0.00000   0.00000   ) 
                     (   0.00000   0.00000   ) 
                     (   0.00000   0.00000   ) 
                     (   0.00000   0.00000   ) 
                     (   0.00000   0.00000   ) 
                     (   0.00000   0.00000   ) 
                     (   0.00000   0.00000   ) 
                     (   0.00000   0.00000   ) 
                     (   0.00000   0.00000   ) 
                     (   0.00000   0.00000   ) 
                     (   0.00000   0.00000   ) 
                     (   0.00000   0.00000   ) 
                     (   0.00000   0.00000   ) 
                     (   0.00000   0.00000   ) 
                     (   0.00000   0.00000   ) 
                     (   0.00000   0.00000   ) 
                     (   0.00000   0.00000   ) 
                     (   0.00000   0.00000   ) 
                     (   0.00000   0.00000   ) 
                     (   0.00000   0.00000   ) 
                     (   0.00000   0.00000   ) 
                     (   0.00000   0.00000   ) 
                     (   0.00000   0.00000   ) 
                     (   0.00000   0.00000   ) 
                     (   0.00000   0.00000   ) 
                     (   0.00000   0.00000   ) 
                     (   0.00000   0.00000   ) 
                     (   0.00000   0.00000   ) 
                     (   0.00000   0.00000   ) 
                     (   0.00000   0.00000   ) 
                     (   0.00000   0.00000   ) 
                     (   0.00000   0.00000   ) 
                     (   0.00000   0.00000   ) 
                     (   0.00000   0.00000   ) 
                     (   0.00000   0.00000   ) 
                     (   0.00000   0.00000   ) 
                     (   0.00000   0.00000   ) 
                     (   0.00000   0.00000   ) 
                     (   0.00000   0.00000   ) 
                     (   0.00000   0.00000   ) 
                     (   0.00000   0.00000   ) 
                     (   0.00000   0.00000   ) 
                     (   0.00000   0.00000   ) 
                     (   0.00000   0.00000   ) 
                     (   0.00000   0.00000   ) 
                     (   0.00000   0.00000   ) 
                     (   0.00000   0.00000   ) 
                     (   0.00000   0.00000   ) 
                     (   0.00000   0.00000   ) 
                     (   0.00000   0.00000   ) 
                     (   0.00000   0.00000   ) 
                     (   0.00000   0.00000   ) 
                     (   0.00000   0.00000   ) 
                     (   0.00000   0.00000   ) 
                     (   0.00000   0.00000   ) 
                     (   0.00000   0.00000   ) 
                     (   0.00000   0.00000   ) 
                     (   0.00000   0.00000   ) 
                     (   0.00000   0.00000   ) 
                     (   0.00000   0.00000   ) 
                     (   0.00000   0.00000   ) 
                     (   0.00000   0.00000   ) 
                     (   0.00000   0.00000   ) 
                     (   0.00000   0.00000   ) 
                     (   0.00000   0.00000   ) 
                     (   0.00000   0.00000   ) 
                     (   0.00000   0.00000   ) 
                     (   0.00000   0.00000   ) 
                     (   0.00000   0.00000   ) 
                     (   0.00000   0.00000   ) 
                     (   0.00000   0.00000   ) 
                     (   0.00000   0.00000   ) 
                     (   0.00000   0.00000   ) 
                     (   0.00000   0.00000   ) 
                     (   0.00000   0.00000   ) 
                     (   0.00000   0.00000   ) 
                     (   0.00000   0.00000   ) 
                     (   0.00000   0.00000   ) 
                     (   0.00000   0.00000   ) 
                     (   0.00000   0.00000   ) 
                     (   0.00000   0.00000   ) 
                     (   0.00000   0.00000   ) 
                     (   0.00000   0.00000   ) 
                     (   0.00000   0.00000   ) 
                     (   0.00000   0.00000   ) 
                     (   0.00000   0.00000   ) 
                     (   0.00000   0.00000   ) 
                     (   0.00000   0.00000   ) 
                     (   0.00000   0.00000   ) 
                     (   0.00000   0.00000   ) 
                     (   0.00000   0.00000   ) 
                     (   0.00000   0.00000   ) 
                     (   0.00000   0.00000   ) 
                     (   0.00000   0.00000   ) 
                     (   0.00000   0.00000   ) 
                     (   0.00000   0.00000   ) 
                     (   0.00000   0.00000   ) 
                     (   0.00000   0.00000   ) 
                     (   0.00000   0.00000   ) 
                     (   0.00000   0.00000   ) 
                     (   0.00000   0.00000   ) 
                     (   0.00000   0.00000   ) 
                     (   0.00000   0.00000   ) 
                     (   0.00000   0.00000   ) 
                     (   0.00000   0.00000   ) 
                     (   0.00000   0.00000   ) 
                     (   0.00000   0.00000   ) 
                     (   0.00000   0.00000   ) 
                     (   0.00000   0.00000   ) 
                     (   0.00000   0.00000   ) 
                     (   0.00000   0.00000   ) 
                     (   0.00000   0.00000   ) 
                     (   0.00000   0.00000   ) 
                     (   0.00000   0.00000   ) 
                     (   0.00000   0.00000   ) 
                     (   0.00000   0.00000   ) 
                     (   0.00000   0.00000   ) 
                     (   0.00000   0.00000   ) 
                     (   0.00000   0.00000   ) 
                     (   0.00000   0.00000   ) 
                     (   0.00000   0.00000   ) 
                     (   0.00000   0.00000   ) 
                     (   0.00000   0.00000   ) 
                     (   0.00000   0.00000   ) 
                     (   0.00000   0.00000   ) 
                     (   0.00000   0.00000   ) 
                     (   0.00000   0.00000   ) 
                     (   0.00000   0.00000   ) 
                     (   0.00000   0.00000   ) 
                     (   0.00000   0.00000   ) 
                     (   0.00000   0.00000   ) 
                     (   0.00000   0.00000   ) 
                     (   0.00000   0.00000   ) 
                     (   0.00000   0.00000   ) 
                     (   0.00000   0.00000   ) 
                     (   0.00000   0.00000   ) 
                     (   0.00000   0.00000   ) 
                     (   0.00000   0.00000   ) 
                     (   0.00000   0.00000   ) 
                     (   0.00000   0.00000   ) 
                     (   0.00000   0.00000   ) 
                     (   0.00000   0.00000   ) 
                     (   0.00000   0.00000   ) 
                     (   0.00000   0.00000   ) 
                     (   0.00000   0.00000   ) 
                     (   0.00000   0.00000   ) 
                     (   0.00000   0.00000   ) 
                     (   0.00000   0.00000   ) 
                     (   0.00000   0.00000   ) 
                     (   0.00000   0.00000   ) 
                     (   0.00000   0.00000   ) 
                     (   0.00000   0.00000   ) 
                     (   0.00000   0.00000   ) 
                     (   0.00000   0.00000   ) 
                     (   0.00000   0.00000   ) 
                     (   0.00000   0.00000   ) 
                     (   0.00000   0.00000   ) 
                     (   0.00000   0.00000   ) 
                     (   0.00000   0.00000   ) 
                     (   0.00000   0.00000   ) 
                     (   0.00000   0.00000   ) 
                     (   0.00000   0.00000   ) 
                     (   0.00000   0.00000   ) 
                     (   0.00000   0.00000   ) 
                     (   0.00000   0.00000   ) 
                     (   0.00000   0.00000   ) 
                     (   0.00000   0.00000   ) 
                     (   0.00000   0.00000   ) 
                     (   0.00000   0.00000   ) 
                     (   0.00000   0.00000   ) 
                     (   0.00000   0.00000   ) 
                     (   0.00000   0.00000   ) 
                     (   0.00000   0.00000   ) 
                     (   0.00000   0.00000   ) 
                     (   0.00000   0.00000   ) 
                     (   0.00000   0.00000   ) 
                     (   0.00000   0.00000   ) 
                     (   0.00000   0.00000   ) 
                     (   0.00000   0.00000   ) 
                     (   0.00000   0.00000   ) 
                     (   0.00000   0.00000   ) 
                     (   0.00000   0.00000   ) 
                     (   0.00000   0.00000   ) 
                     (   0.00000   0.00000   ) 
                     (   0.00000   0.00000   ) 
                     (   0.00000   0.00000   ) 
                     (   0.00000   0.00000   ) 
                     (   0.00000   0.00000   ) 
                     (   0.00000   0.00000   ) 
                     (   0.00000   0.00000   ) 
                     (   0.00000   0.00000   ) 
                     (   0.00000   0.00000   ) 
                     (   0.00000   0.00000   ) 
                     (   0.00000   0.00000   ) 
                     (   0.00000   0.00000   ) 
                     (   0.00000   0.00000   ) 
                     (   0.00000   0.00000   ) 
                     (   0.00000   0.00000   ) 
                     (   0.00000   0.00000   ) 
                     (   0.00000   0.00000   ) 
                     (   0.00000   0.00000   ) 
                     (   0.00000   0.00000   ) 
                     (   0.00000   0.00000   ) 
                     (   0.00000   0.00000   ) 
                     (   0.00000   0.00000   ) 
                     (   0.00000   0.00000   ) 
                     (   0.00000   0.00000   ) 
                     (   0.00000   0.00000   ) 
                     (   0.00000   0.00000   ) 

     Representation     4      1 modes -A  To be done
     Irreps are as follows:

                     mode #   4
                     (   0.00000   0.00000   ) 
                     (   0.00000   0.00000   ) 
                     (   0.00000   0.00000   ) 
                     (   1.00000   0.00000   ) 
                     (   0.00000   0.00000   ) 
                     (   0.00000   0.00000   ) 
                     (   0.00000   0.00000   ) 
                     (   0.00000   0.00000   ) 
                     (   0.00000   0.00000   ) 
                     (   0.00000   0.00000   ) 
                     (   0.00000   0.00000   ) 
                     (   0.00000   0.00000   ) 
                     (   0.00000   0.00000   ) 
                     (   0.00000   0.00000   ) 
                     (   0.00000   0.00000   ) 
                     (   0.00000   0.00000   ) 
                     (   0.00000   0.00000   ) 
                     (   0.00000   0.00000   ) 
                     (   0.00000   0.00000   ) 
                     (   0.00000   0.00000   ) 
                     (   0.00000   0.00000   ) 
                     (   0.00000   0.00000   ) 
                     (   0.00000   0.00000   ) 
                     (   0.00000   0.00000   ) 
                     (   0.00000   0.00000   ) 
                     (   0.00000   0.00000   ) 
                     (   0.00000   0.00000   ) 
                     (   0.00000   0.00000   ) 
                     (   0.00000   0.00000   ) 
                     (   0.00000   0.00000   ) 
                     (   0.00000   0.00000   ) 
                     (   0.00000   0.00000   ) 
                     (   0.00000   0.00000   ) 
                     (   0.00000   0.00000   ) 
                     (   0.00000   0.00000   ) 
                     (   0.00000   0.00000   ) 
                     (   0.00000   0.00000   ) 
                     (   0.00000   0.00000   ) 
                     (   0.00000   0.00000   ) 
                     (   0.00000   0.00000   ) 
                     (   0.00000   0.00000   ) 
                     (   0.00000   0.00000   ) 
                     (   0.00000   0.00000   ) 
                     (   0.00000   0.00000   ) 
                     (   0.00000   0.00000   ) 
                     (   0.00000   0.00000   ) 
                     (   0.00000   0.00000   ) 
                     (   0.00000   0.00000   ) 
                     (   0.00000   0.00000   ) 
                     (   0.00000   0.00000   ) 
                     (   0.00000   0.00000   ) 
                     (   0.00000   0.00000   ) 
                     (   0.00000   0.00000   ) 
                     (   0.00000   0.00000   ) 
                     (   0.00000   0.00000   ) 
                     (   0.00000   0.00000   ) 
                     (   0.00000   0.00000   ) 
                     (   0.00000   0.00000   ) 
                     (   0.00000   0.00000   ) 
                     (   0.00000   0.00000   ) 
                     (   0.00000   0.00000   ) 
                     (   0.00000   0.00000   ) 
                     (   0.00000   0.00000   ) 
                     (   0.00000   0.00000   ) 
                     (   0.00000   0.00000   ) 
                     (   0.00000   0.00000   ) 
                     (   0.00000   0.00000   ) 
                     (   0.00000   0.00000   ) 
                     (   0.00000   0.00000   ) 
                     (   0.00000   0.00000   ) 
                     (   0.00000   0.00000   ) 
                     (   0.00000   0.00000   ) 
                     (   0.00000   0.00000   ) 
                     (   0.00000   0.00000   ) 
                     (   0.00000   0.00000   ) 
                     (   0.00000   0.00000   ) 
                     (   0.00000   0.00000   ) 
                     (   0.00000   0.00000   ) 
                     (   0.00000   0.00000   ) 
                     (   0.00000   0.00000   ) 
                     (   0.00000   0.00000   ) 
                     (   0.00000   0.00000   ) 
                     (   0.00000   0.00000   ) 
                     (   0.00000   0.00000   ) 
                     (   0.00000   0.00000   ) 
                     (   0.00000   0.00000   ) 
                     (   0.00000   0.00000   ) 
                     (   0.00000   0.00000   ) 
                     (   0.00000   0.00000   ) 
                     (   0.00000   0.00000   ) 
                     (   0.00000   0.00000   ) 
                     (   0.00000   0.00000   ) 
                     (   0.00000   0.00000   ) 
                     (   0.00000   0.00000   ) 
                     (   0.00000   0.00000   ) 
                     (   0.00000   0.00000   ) 
                     (   0.00000   0.00000   ) 
                     (   0.00000   0.00000   ) 
                     (   0.00000   0.00000   ) 
                     (   0.00000   0.00000   ) 
                     (   0.00000   0.00000   ) 
                     (   0.00000   0.00000   ) 
                     (   0.00000   0.00000   ) 
                     (   0.00000   0.00000   ) 
                     (   0.00000   0.00000   ) 
                     (   0.00000   0.00000   ) 
                     (   0.00000   0.00000   ) 
                     (   0.00000   0.00000   ) 
                     (   0.00000   0.00000   ) 
                     (   0.00000   0.00000   ) 
                     (   0.00000   0.00000   ) 
                     (   0.00000   0.00000   ) 
                     (   0.00000   0.00000   ) 
                     (   0.00000   0.00000   ) 
                     (   0.00000   0.00000   ) 
                     (   0.00000   0.00000   ) 
                     (   0.00000   0.00000   ) 
                     (   0.00000   0.00000   ) 
                     (   0.00000   0.00000   ) 
                     (   0.00000   0.00000   ) 
                     (   0.00000   0.00000   ) 
                     (   0.00000   0.00000   ) 
                     (   0.00000   0.00000   ) 
                     (   0.00000   0.00000   ) 
                     (   0.00000   0.00000   ) 
                     (   0.00000   0.00000   ) 
                     (   0.00000   0.00000   ) 
                     (   0.00000   0.00000   ) 
                     (   0.00000   0.00000   ) 
                     (   0.00000   0.00000   ) 
                     (   0.00000   0.00000   ) 
                     (   0.00000   0.00000   ) 
                     (   0.00000   0.00000   ) 
                     (   0.00000   0.00000   ) 
                     (   0.00000   0.00000   ) 
                     (   0.00000   0.00000   ) 
                     (   0.00000   0.00000   ) 
                     (   0.00000   0.00000   ) 
                     (   0.00000   0.00000   ) 
                     (   0.00000   0.00000   ) 
                     (   0.00000   0.00000   ) 
                     (   0.00000   0.00000   ) 
                     (   0.00000   0.00000   ) 
                     (   0.00000   0.00000   ) 
                     (   0.00000   0.00000   ) 
                     (   0.00000   0.00000   ) 
                     (   0.00000   0.00000   ) 
                     (   0.00000   0.00000   ) 
                     (   0.00000   0.00000   ) 
                     (   0.00000   0.00000   ) 
                     (   0.00000   0.00000   ) 
                     (   0.00000   0.00000   ) 
                     (   0.00000   0.00000   ) 
                     (   0.00000   0.00000   ) 
                     (   0.00000   0.00000   ) 
                     (   0.00000   0.00000   ) 
                     (   0.00000   0.00000   ) 
                     (   0.00000   0.00000   ) 
                     (   0.00000   0.00000   ) 
                     (   0.00000   0.00000   ) 
                     (   0.00000   0.00000   ) 
                     (   0.00000   0.00000   ) 
                     (   0.00000   0.00000   ) 
                     (   0.00000   0.00000   ) 
                     (   0.00000   0.00000   ) 
                     (   0.00000   0.00000   ) 
                     (   0.00000   0.00000   ) 
                     (   0.00000   0.00000   ) 
                     (   0.00000   0.00000   ) 
                     (   0.00000   0.00000   ) 
                     (   0.00000   0.00000   ) 
                     (   0.00000   0.00000   ) 
                     (   0.00000   0.00000   ) 
                     (   0.00000   0.00000   ) 
                     (   0.00000   0.00000   ) 
                     (   0.00000   0.00000   ) 
                     (   0.00000   0.00000   ) 
                     (   0.00000   0.00000   ) 
                     (   0.00000   0.00000   ) 
                     (   0.00000   0.00000   ) 
                     (   0.00000   0.00000   ) 
                     (   0.00000   0.00000   ) 
                     (   0.00000   0.00000   ) 
                     (   0.00000   0.00000   ) 
                     (   0.00000   0.00000   ) 
                     (   0.00000   0.00000   ) 
                     (   0.00000   0.00000   ) 
                     (   0.00000   0.00000   ) 
                     (   0.00000   0.00000   ) 
                     (   0.00000   0.00000   ) 
                     (   0.00000   0.00000   ) 
                     (   0.00000   0.00000   ) 
                     (   0.00000   0.00000   ) 
                     (   0.00000   0.00000   ) 
                     (   0.00000   0.00000   ) 
                     (   0.00000   0.00000   ) 
                     (   0.00000   0.00000   ) 
                     (   0.00000   0.00000   ) 
                     (   0.00000   0.00000   ) 
                     (   0.00000   0.00000   ) 
                     (   0.00000   0.00000   ) 
                     (   0.00000   0.00000   ) 
                     (   0.00000   0.00000   ) 
                     (   0.00000   0.00000   ) 
                     (   0.00000   0.00000   ) 
                     (   0.00000   0.00000   ) 
                     (   0.00000   0.00000   ) 
                     (   0.00000   0.00000   ) 
                     (   0.00000   0.00000   ) 
                     (   0.00000   0.00000   ) 
                     (   0.00000   0.00000   ) 
                     (   0.00000   0.00000   ) 
                     (   0.00000   0.00000   ) 
                     (   0.00000   0.00000   ) 
                     (   0.00000   0.00000   ) 
                     (   0.00000   0.00000   ) 

     Representation     5      1 modes -A  To be done
     Irreps are as follows:

                     mode #   5
                     (   0.00000   0.00000   ) 
                     (   0.00000   0.00000   ) 
                     (   0.00000   0.00000   ) 
                     (   0.00000   0.00000   ) 
                     (   1.00000   0.00000   ) 
                     (   0.00000   0.00000   ) 
                     (   0.00000   0.00000   ) 
                     (   0.00000   0.00000   ) 
                     (   0.00000   0.00000   ) 
                     (   0.00000   0.00000   ) 
                     (   0.00000   0.00000   ) 
                     (   0.00000   0.00000   ) 
                     (   0.00000   0.00000   ) 
                     (   0.00000   0.00000   ) 
                     (   0.00000   0.00000   ) 
                     (   0.00000   0.00000   ) 
                     (   0.00000   0.00000   ) 
                     (   0.00000   0.00000   ) 
                     (   0.00000   0.00000   ) 
                     (   0.00000   0.00000   ) 
                     (   0.00000   0.00000   ) 
                     (   0.00000   0.00000   ) 
                     (   0.00000   0.00000   ) 
                     (   0.00000   0.00000   ) 
                     (   0.00000   0.00000   ) 
                     (   0.00000   0.00000   ) 
                     (   0.00000   0.00000   ) 
                     (   0.00000   0.00000   ) 
                     (   0.00000   0.00000   ) 
                     (   0.00000   0.00000   ) 
                     (   0.00000   0.00000   ) 
                     (   0.00000   0.00000   ) 
                     (   0.00000   0.00000   ) 
                     (   0.00000   0.00000   ) 
                     (   0.00000   0.00000   ) 
                     (   0.00000   0.00000   ) 
                     (   0.00000   0.00000   ) 
                     (   0.00000   0.00000   ) 
                     (   0.00000   0.00000   ) 
                     (   0.00000   0.00000   ) 
                     (   0.00000   0.00000   ) 
                     (   0.00000   0.00000   ) 
                     (   0.00000   0.00000   ) 
                     (   0.00000   0.00000   ) 
                     (   0.00000   0.00000   ) 
                     (   0.00000   0.00000   ) 
                     (   0.00000   0.00000   ) 
                     (   0.00000   0.00000   ) 
                     (   0.00000   0.00000   ) 
                     (   0.00000   0.00000   ) 
                     (   0.00000   0.00000   ) 
                     (   0.00000   0.00000   ) 
                     (   0.00000   0.00000   ) 
                     (   0.00000   0.00000   ) 
                     (   0.00000   0.00000   ) 
                     (   0.00000   0.00000   ) 
                     (   0.00000   0.00000   ) 
                     (   0.00000   0.00000   ) 
                     (   0.00000   0.00000   ) 
                     (   0.00000   0.00000   ) 
                     (   0.00000   0.00000   ) 
                     (   0.00000   0.00000   ) 
                     (   0.00000   0.00000   ) 
                     (   0.00000   0.00000   ) 
                     (   0.00000   0.00000   ) 
                     (   0.00000   0.00000   ) 
                     (   0.00000   0.00000   ) 
                     (   0.00000   0.00000   ) 
                     (   0.00000   0.00000   ) 
                     (   0.00000   0.00000   ) 
                     (   0.00000   0.00000   ) 
                     (   0.00000   0.00000   ) 
                     (   0.00000   0.00000   ) 
                     (   0.00000   0.00000   ) 
                     (   0.00000   0.00000   ) 
                     (   0.00000   0.00000   ) 
                     (   0.00000   0.00000   ) 
                     (   0.00000   0.00000   ) 
                     (   0.00000   0.00000   ) 
                     (   0.00000   0.00000   ) 
                     (   0.00000   0.00000   ) 
                     (   0.00000   0.00000   ) 
                     (   0.00000   0.00000   ) 
                     (   0.00000   0.00000   ) 
                     (   0.00000   0.00000   ) 
                     (   0.00000   0.00000   ) 
                     (   0.00000   0.00000   ) 
                     (   0.00000   0.00000   ) 
                     (   0.00000   0.00000   ) 
                     (   0.00000   0.00000   ) 
                     (   0.00000   0.00000   ) 
                     (   0.00000   0.00000   ) 
                     (   0.00000   0.00000   ) 
                     (   0.00000   0.00000   ) 
                     (   0.00000   0.00000   ) 
                     (   0.00000   0.00000   ) 
                     (   0.00000   0.00000   ) 
                     (   0.00000   0.00000   ) 
                     (   0.00000   0.00000   ) 
                     (   0.00000   0.00000   ) 
                     (   0.00000   0.00000   ) 
                     (   0.00000   0.00000   ) 
                     (   0.00000   0.00000   ) 
                     (   0.00000   0.00000   ) 
                     (   0.00000   0.00000   ) 
                     (   0.00000   0.00000   ) 
                     (   0.00000   0.00000   ) 
                     (   0.00000   0.00000   ) 
                     (   0.00000   0.00000   ) 
                     (   0.00000   0.00000   ) 
                     (   0.00000   0.00000   ) 
                     (   0.00000   0.00000   ) 
                     (   0.00000   0.00000   ) 
                     (   0.00000   0.00000   ) 
                     (   0.00000   0.00000   ) 
                     (   0.00000   0.00000   ) 
                     (   0.00000   0.00000   ) 
                     (   0.00000   0.00000   ) 
                     (   0.00000   0.00000   ) 
                     (   0.00000   0.00000   ) 
                     (   0.00000   0.00000   ) 
                     (   0.00000   0.00000   ) 
                     (   0.00000   0.00000   ) 
                     (   0.00000   0.00000   ) 
                     (   0.00000   0.00000   ) 
                     (   0.00000   0.00000   ) 
                     (   0.00000   0.00000   ) 
                     (   0.00000   0.00000   ) 
                     (   0.00000   0.00000   ) 
                     (   0.00000   0.00000   ) 
                     (   0.00000   0.00000   ) 
                     (   0.00000   0.00000   ) 
                     (   0.00000   0.00000   ) 
                     (   0.00000   0.00000   ) 
                     (   0.00000   0.00000   ) 
                     (   0.00000   0.00000   ) 
                     (   0.00000   0.00000   ) 
                     (   0.00000   0.00000   ) 
                     (   0.00000   0.00000   ) 
                     (   0.00000   0.00000   ) 
                     (   0.00000   0.00000   ) 
                     (   0.00000   0.00000   ) 
                     (   0.00000   0.00000   ) 
                     (   0.00000   0.00000   ) 
                     (   0.00000   0.00000   ) 
                     (   0.00000   0.00000   ) 
                     (   0.00000   0.00000   ) 
                     (   0.00000   0.00000   ) 
                     (   0.00000   0.00000   ) 
                     (   0.00000   0.00000   ) 
                     (   0.00000   0.00000   ) 
                     (   0.00000   0.00000   ) 
                     (   0.00000   0.00000   ) 
                     (   0.00000   0.00000   ) 
                     (   0.00000   0.00000   ) 
                     (   0.00000   0.00000   ) 
                     (   0.00000   0.00000   ) 
                     (   0.00000   0.00000   ) 
                     (   0.00000   0.00000   ) 
                     (   0.00000   0.00000   ) 
                     (   0.00000   0.00000   ) 
                     (   0.00000   0.00000   ) 
                     (   0.00000   0.00000   ) 
                     (   0.00000   0.00000   ) 
                     (   0.00000   0.00000   ) 
                     (   0.00000   0.00000   ) 
                     (   0.00000   0.00000   ) 
                     (   0.00000   0.00000   ) 
                     (   0.00000   0.00000   ) 
                     (   0.00000   0.00000   ) 
                     (   0.00000   0.00000   ) 
                     (   0.00000   0.00000   ) 
                     (   0.00000   0.00000   ) 
                     (   0.00000   0.00000   ) 
                     (   0.00000   0.00000   ) 
                     (   0.00000   0.00000   ) 
                     (   0.00000   0.00000   ) 
                     (   0.00000   0.00000   ) 
                     (   0.00000   0.00000   ) 
                     (   0.00000   0.00000   ) 
                     (   0.00000   0.00000   ) 
                     (   0.00000   0.00000   ) 
                     (   0.00000   0.00000   ) 
                     (   0.00000   0.00000   ) 
                     (   0.00000   0.00000   ) 
                     (   0.00000   0.00000   ) 
                     (   0.00000   0.00000   ) 
                     (   0.00000   0.00000   ) 
                     (   0.00000   0.00000   ) 
                     (   0.00000   0.00000   ) 
                     (   0.00000   0.00000   ) 
                     (   0.00000   0.00000   ) 
                     (   0.00000   0.00000   ) 
                     (   0.00000   0.00000   ) 
                     (   0.00000   0.00000   ) 
                     (   0.00000   0.00000   ) 
                     (   0.00000   0.00000   ) 
                     (   0.00000   0.00000   ) 
                     (   0.00000   0.00000   ) 
                     (   0.00000   0.00000   ) 
                     (   0.00000   0.00000   ) 
                     (   0.00000   0.00000   ) 
                     (   0.00000   0.00000   ) 
                     (   0.00000   0.00000   ) 
                     (   0.00000   0.00000   ) 
                     (   0.00000   0.00000   ) 
                     (   0.00000   0.00000   ) 
                     (   0.00000   0.00000   ) 
                     (   0.00000   0.00000   ) 
                     (   0.00000   0.00000   ) 
                     (   0.00000   0.00000   ) 
                     (   0.00000   0.00000   ) 
                     (   0.00000   0.00000   ) 
                     (   0.00000   0.00000   ) 
                     (   0.00000   0.00000   ) 
                     (   0.00000   0.00000   ) 

     Representation     6      1 modes -A  To be done
     Irreps are as follows:

                     mode #   6
                     (   0.00000   0.00000   ) 
                     (   0.00000   0.00000   ) 
                     (   0.00000   0.00000   ) 
                     (   0.00000   0.00000   ) 
                     (   0.00000   0.00000   ) 
                     (   1.00000   0.00000   ) 
                     (   0.00000   0.00000   ) 
                     (   0.00000   0.00000   ) 
                     (   0.00000   0.00000   ) 
                     (   0.00000   0.00000   ) 
                     (   0.00000   0.00000   ) 
                     (   0.00000   0.00000   ) 
                     (   0.00000   0.00000   ) 
                     (   0.00000   0.00000   ) 
                     (   0.00000   0.00000   ) 
                     (   0.00000   0.00000   ) 
                     (   0.00000   0.00000   ) 
                     (   0.00000   0.00000   ) 
                     (   0.00000   0.00000   ) 
                     (   0.00000   0.00000   ) 
                     (   0.00000   0.00000   ) 
                     (   0.00000   0.00000   ) 
                     (   0.00000   0.00000   ) 
                     (   0.00000   0.00000   ) 
                     (   0.00000   0.00000   ) 
                     (   0.00000   0.00000   ) 
                     (   0.00000   0.00000   ) 
                     (   0.00000   0.00000   ) 
                     (   0.00000   0.00000   ) 
                     (   0.00000   0.00000   ) 
                     (   0.00000   0.00000   ) 
                     (   0.00000   0.00000   ) 
                     (   0.00000   0.00000   ) 
                     (   0.00000   0.00000   ) 
                     (   0.00000   0.00000   ) 
                     (   0.00000   0.00000   ) 
                     (   0.00000   0.00000   ) 
                     (   0.00000   0.00000   ) 
                     (   0.00000   0.00000   ) 
                     (   0.00000   0.00000   ) 
                     (   0.00000   0.00000   ) 
                     (   0.00000   0.00000   ) 
                     (   0.00000   0.00000   ) 
                     (   0.00000   0.00000   ) 
                     (   0.00000   0.00000   ) 
                     (   0.00000   0.00000   ) 
                     (   0.00000   0.00000   ) 
                     (   0.00000   0.00000   ) 
                     (   0.00000   0.00000   ) 
                     (   0.00000   0.00000   ) 
                     (   0.00000   0.00000   ) 
                     (   0.00000   0.00000   ) 
                     (   0.00000   0.00000   ) 
                     (   0.00000   0.00000   ) 
                     (   0.00000   0.00000   ) 
                     (   0.00000   0.00000   ) 
                     (   0.00000   0.00000   ) 
                     (   0.00000   0.00000   ) 
                     (   0.00000   0.00000   ) 
                     (   0.00000   0.00000   ) 
                     (   0.00000   0.00000   ) 
                     (   0.00000   0.00000   ) 
                     (   0.00000   0.00000   ) 
                     (   0.00000   0.00000   ) 
                     (   0.00000   0.00000   ) 
                     (   0.00000   0.00000   ) 
                     (   0.00000   0.00000   ) 
                     (   0.00000   0.00000   ) 
                     (   0.00000   0.00000   ) 
                     (   0.00000   0.00000   ) 
                     (   0.00000   0.00000   ) 
                     (   0.00000   0.00000   ) 
                     (   0.00000   0.00000   ) 
                     (   0.00000   0.00000   ) 
                     (   0.00000   0.00000   ) 
                     (   0.00000   0.00000   ) 
                     (   0.00000   0.00000   ) 
                     (   0.00000   0.00000   ) 
                     (   0.00000   0.00000   ) 
                     (   0.00000   0.00000   ) 
                     (   0.00000   0.00000   ) 
                     (   0.00000   0.00000   ) 
                     (   0.00000   0.00000   ) 
                     (   0.00000   0.00000   ) 
                     (   0.00000   0.00000   ) 
                     (   0.00000   0.00000   ) 
                     (   0.00000   0.00000   ) 
                     (   0.00000   0.00000   ) 
                     (   0.00000   0.00000   ) 
                     (   0.00000   0.00000   ) 
                     (   0.00000   0.00000   ) 
                     (   0.00000   0.00000   ) 
                     (   0.00000   0.00000   ) 
                     (   0.00000   0.00000   ) 
                     (   0.00000   0.00000   ) 
                     (   0.00000   0.00000   ) 
                     (   0.00000   0.00000   ) 
                     (   0.00000   0.00000   ) 
                     (   0.00000   0.00000   ) 
                     (   0.00000   0.00000   ) 
                     (   0.00000   0.00000   ) 
                     (   0.00000   0.00000   ) 
                     (   0.00000   0.00000   ) 
                     (   0.00000   0.00000   ) 
                     (   0.00000   0.00000   ) 
                     (   0.00000   0.00000   ) 
                     (   0.00000   0.00000   ) 
                     (   0.00000   0.00000   ) 
                     (   0.00000   0.00000   ) 
                     (   0.00000   0.00000   ) 
                     (   0.00000   0.00000   ) 
                     (   0.00000   0.00000   ) 
                     (   0.00000   0.00000   ) 
                     (   0.00000   0.00000   ) 
                     (   0.00000   0.00000   ) 
                     (   0.00000   0.00000   ) 
                     (   0.00000   0.00000   ) 
                     (   0.00000   0.00000   ) 
                     (   0.00000   0.00000   ) 
                     (   0.00000   0.00000   ) 
                     (   0.00000   0.00000   ) 
                     (   0.00000   0.00000   ) 
                     (   0.00000   0.00000   ) 
                     (   0.00000   0.00000   ) 
                     (   0.00000   0.00000   ) 
                     (   0.00000   0.00000   ) 
                     (   0.00000   0.00000   ) 
                     (   0.00000   0.00000   ) 
                     (   0.00000   0.00000   ) 
                     (   0.00000   0.00000   ) 
                     (   0.00000   0.00000   ) 
                     (   0.00000   0.00000   ) 
                     (   0.00000   0.00000   ) 
                     (   0.00000   0.00000   ) 
                     (   0.00000   0.00000   ) 
                     (   0.00000   0.00000   ) 
                     (   0.00000   0.00000   ) 
                     (   0.00000   0.00000   ) 
                     (   0.00000   0.00000   ) 
                     (   0.00000   0.00000   ) 
                     (   0.00000   0.00000   ) 
                     (   0.00000   0.00000   ) 
                     (   0.00000   0.00000   ) 
                     (   0.00000   0.00000   ) 
                     (   0.00000   0.00000   ) 
                     (   0.00000   0.00000   ) 
                     (   0.00000   0.00000   ) 
                     (   0.00000   0.00000   ) 
                     (   0.00000   0.00000   ) 
                     (   0.00000   0.00000   ) 
                     (   0.00000   0.00000   ) 
                     (   0.00000   0.00000   ) 
                     (   0.00000   0.00000   ) 
                     (   0.00000   0.00000   ) 
                     (   0.00000   0.00000   ) 
                     (   0.00000   0.00000   ) 
                     (   0.00000   0.00000   ) 
                     (   0.00000   0.00000   ) 
                     (   0.00000   0.00000   ) 
                     (   0.00000   0.00000   ) 
                     (   0.00000   0.00000   ) 
                     (   0.00000   0.00000   ) 
                     (   0.00000   0.00000   ) 
                     (   0.00000   0.00000   ) 
                     (   0.00000   0.00000   ) 
                     (   0.00000   0.00000   ) 
                     (   0.00000   0.00000   ) 
                     (   0.00000   0.00000   ) 
                     (   0.00000   0.00000   ) 
                     (   0.00000   0.00000   ) 
                     (   0.00000   0.00000   ) 
                     (   0.00000   0.00000   ) 
                     (   0.00000   0.00000   ) 
                     (   0.00000   0.00000   ) 
                     (   0.00000   0.00000   ) 
                     (   0.00000   0.00000   ) 
                     (   0.00000   0.00000   ) 
                     (   0.00000   0.00000   ) 
                     (   0.00000   0.00000   ) 
                     (   0.00000   0.00000   ) 
                     (   0.00000   0.00000   ) 
                     (   0.00000   0.00000   ) 
                     (   0.00000   0.00000   ) 
                     (   0.00000   0.00000   ) 
                     (   0.00000   0.00000   ) 
                     (   0.00000   0.00000   ) 
                     (   0.00000   0.00000   ) 
                     (   0.00000   0.00000   ) 
                     (   0.00000   0.00000   ) 
                     (   0.00000   0.00000   ) 
                     (   0.00000   0.00000   ) 
                     (   0.00000   0.00000   ) 
                     (   0.00000   0.00000   ) 
                     (   0.00000   0.00000   ) 
                     (   0.00000   0.00000   ) 
                     (   0.00000   0.00000   ) 
                     (   0.00000   0.00000   ) 
                     (   0.00000   0.00000   ) 
                     (   0.00000   0.00000   ) 
                     (   0.00000   0.00000   ) 
                     (   0.00000   0.00000   ) 
                     (   0.00000   0.00000   ) 
                     (   0.00000   0.00000   ) 
                     (   0.00000   0.00000   ) 
                     (   0.00000   0.00000   ) 
                     (   0.00000   0.00000   ) 
                     (   0.00000   0.00000   ) 
                     (   0.00000   0.00000   ) 
                     (   0.00000   0.00000   ) 
                     (   0.00000   0.00000   ) 
                     (   0.00000   0.00000   ) 
                     (   0.00000   0.00000   ) 
                     (   0.00000   0.00000   ) 
                     (   0.00000   0.00000   ) 
                     (   0.00000   0.00000   ) 
                     (   0.00000   0.00000   ) 

     Representation     7      1 modes -A  To be done
     Irreps are as follows:

                     mode #   7
                     (   0.00000   0.00000   ) 
                     (   0.00000   0.00000   ) 
                     (   0.00000   0.00000   ) 
                     (   0.00000   0.00000   ) 
                     (   0.00000   0.00000   ) 
                     (   0.00000   0.00000   ) 
                     (   1.00000   0.00000   ) 
                     (   0.00000   0.00000   ) 
                     (   0.00000   0.00000   ) 
                     (   0.00000   0.00000   ) 
                     (   0.00000   0.00000   ) 
                     (   0.00000   0.00000   ) 
                     (   0.00000   0.00000   ) 
                     (   0.00000   0.00000   ) 
                     (   0.00000   0.00000   ) 
                     (   0.00000   0.00000   ) 
                     (   0.00000   0.00000   ) 
                     (   0.00000   0.00000   ) 
                     (   0.00000   0.00000   ) 
                     (   0.00000   0.00000   ) 
                     (   0.00000   0.00000   ) 
                     (   0.00000   0.00000   ) 
                     (   0.00000   0.00000   ) 
                     (   0.00000   0.00000   ) 
                     (   0.00000   0.00000   ) 
                     (   0.00000   0.00000   ) 
                     (   0.00000   0.00000   ) 
                     (   0.00000   0.00000   ) 
                     (   0.00000   0.00000   ) 
                     (   0.00000   0.00000   ) 
                     (   0.00000   0.00000   ) 
                     (   0.00000   0.00000   ) 
                     (   0.00000   0.00000   ) 
                     (   0.00000   0.00000   ) 
                     (   0.00000   0.00000   ) 
                     (   0.00000   0.00000   ) 
                     (   0.00000   0.00000   ) 
                     (   0.00000   0.00000   ) 
                     (   0.00000   0.00000   ) 
                     (   0.00000   0.00000   ) 
                     (   0.00000   0.00000   ) 
                     (   0.00000   0.00000   ) 
                     (   0.00000   0.00000   ) 
                     (   0.00000   0.00000   ) 
                     (   0.00000   0.00000   ) 
                     (   0.00000   0.00000   ) 
                     (   0.00000   0.00000   ) 
                     (   0.00000   0.00000   ) 
                     (   0.00000   0.00000   ) 
                     (   0.00000   0.00000   ) 
                     (   0.00000   0.00000   ) 
                     (   0.00000   0.00000   ) 
                     (   0.00000   0.00000   ) 
                     (   0.00000   0.00000   ) 
                     (   0.00000   0.00000   ) 
                     (   0.00000   0.00000   ) 
                     (   0.00000   0.00000   ) 
                     (   0.00000   0.00000   ) 
                     (   0.00000   0.00000   ) 
                     (   0.00000   0.00000   ) 
                     (   0.00000   0.00000   ) 
                     (   0.00000   0.00000   ) 
                     (   0.00000   0.00000   ) 
                     (   0.00000   0.00000   ) 
                     (   0.00000   0.00000   ) 
                     (   0.00000   0.00000   ) 
                     (   0.00000   0.00000   ) 
                     (   0.00000   0.00000   ) 
                     (   0.00000   0.00000   ) 
                     (   0.00000   0.00000   ) 
                     (   0.00000   0.00000   ) 
                     (   0.00000   0.00000   ) 
                     (   0.00000   0.00000   ) 
                     (   0.00000   0.00000   ) 
                     (   0.00000   0.00000   ) 
                     (   0.00000   0.00000   ) 
                     (   0.00000   0.00000   ) 
                     (   0.00000   0.00000   ) 
                     (   0.00000   0.00000   ) 
                     (   0.00000   0.00000   ) 
                     (   0.00000   0.00000   ) 
                     (   0.00000   0.00000   ) 
                     (   0.00000   0.00000   ) 
                     (   0.00000   0.00000   ) 
                     (   0.00000   0.00000   ) 
                     (   0.00000   0.00000   ) 
                     (   0.00000   0.00000   ) 
                     (   0.00000   0.00000   ) 
                     (   0.00000   0.00000   ) 
[...]
     freq (  197) =      40.946738 [THz] =    1365.836155 [cm-1]
     freq (  198) =      41.026568 [THz] =    1368.499001 [cm-1]
     freq (  199) =      42.636193 [THz] =    1422.190329 [cm-1]
     freq (  200) =      42.664064 [THz] =    1423.119984 [cm-1]
     freq (  201) =      42.681310 [THz] =    1423.695240 [cm-1]
     freq (  202) =      42.852118 [THz] =    1429.392805 [cm-1]
     freq (  203) =      42.949417 [THz] =    1432.638348 [cm-1]
     freq (  204) =      43.021712 [THz] =    1435.049838 [cm-1]
     freq (  205) =      43.460244 [THz] =    1449.677709 [cm-1]
     freq (  206) =      43.507510 [THz] =    1451.254305 [cm-1]
     freq (  207) =      43.609102 [THz] =    1454.643081 [cm-1]
     freq (  208) =      43.641154 [THz] =    1455.712213 [cm-1]
     freq (  209) =      43.686130 [THz] =    1457.212447 [cm-1]
     freq (  210) =      44.419972 [THz] =    1481.690787 [cm-1]
     freq (  211) =      45.205166 [THz] =    1507.882016 [cm-1]
     freq (  212) =      45.229069 [THz] =    1508.679352 [cm-1]
     freq (  213) =      45.315923 [THz] =    1511.576495 [cm-1]
     freq (  214) =      45.388941 [THz] =    1514.012110 [cm-1]
     freq (  215) =      45.512255 [THz] =    1518.125415 [cm-1]
     freq (  216) =      47.461553 [THz] =    1583.147011 [cm-1]
 **************************************************************************

     Mode symmetry, C_s (m)     point group:

     freq (  1 -  1) =       -105.9  [cm-1]   -->   ?
     freq (  2 -  2) =        -91.7  [cm-1]   -->   ?
     freq (  3 -  3) =        -85.0  [cm-1]   -->   ?
     freq (  4 -  4) =        -79.2  [cm-1]   -->   ?
     freq (  5 -  5) =        -68.5  [cm-1]   -->   ?
     freq (  6 -  6) =        -38.3  [cm-1]   -->   ?
     freq (  7 -  7) =        -36.5  [cm-1]   --> A'              I+R
     freq (  8 -  8) =        -19.7  [cm-1]   --> A'              I+R
     freq (  9 -  9) =         20.6  [cm-1]   --> A''             I+R
     freq ( 10 - 10) =        147.1  [cm-1]   --> A''             I+R
     freq ( 11 - 11) =        153.3  [cm-1]   --> A''             I+R
     freq ( 12 - 12) =        160.5  [cm-1]   --> A''             I+R
     freq ( 13 - 13) =        167.1  [cm-1]   --> A''             I+R
     freq ( 14 - 14) =        168.6  [cm-1]   --> A''             I+R
     freq ( 15 - 15) =        181.4  [cm-1]   --> A''             I+R
     freq ( 16 - 16) =        181.6  [cm-1]   --> A''             I+R
     freq ( 17 - 17) =        182.2  [cm-1]   --> A''             I+R
     freq ( 18 - 18) =        198.5  [cm-1]   --> A''             I+R
     freq ( 19 - 19) =        202.4  [cm-1]   --> A''             I+R
     freq ( 20 - 20) =        202.7  [cm-1]   --> A''             I+R
     freq ( 21 - 21) =        209.0  [cm-1]   --> A''             I+R
     freq ( 22 - 22) =        242.3  [cm-1]   --> A''             I+R
     freq ( 23 - 23) =        252.7  [cm-1]   --> A''             I+R
     freq ( 24 - 24) =        257.5  [cm-1]   --> A''             I+R
     freq ( 25 - 25) =        260.5  [cm-1]   --> A''             I+R
     freq ( 26 - 26) =        264.1  [cm-1]   --> A''             I+R
     freq ( 27 - 27) =        264.7  [cm-1]   --> A''             I+R
     freq ( 28 - 28) =        266.1  [cm-1]   --> A''             I+R
     freq ( 29 - 29) =        268.0  [cm-1]   --> A''             I+R
     freq ( 30 - 30) =        270.7  [cm-1]   --> A''             I+R
     freq ( 31 - 31) =        282.0  [cm-1]   --> A''             I+R
     freq ( 32 - 32) =        282.4  [cm-1]   --> A'              I+R
     freq ( 33 - 33) =        282.6  [cm-1]   --> A''             I+R
     freq ( 34 - 34) =        291.3  [cm-1]   --> A''             I+R
     freq ( 35 - 35) =        291.8  [cm-1]   --> A'              I+R
     freq ( 36 - 36) =        293.4  [cm-1]   --> A'              I+R
     freq ( 37 - 37) =        293.4  [cm-1]   --> A''             I+R
     freq ( 38 - 38) =        293.9  [cm-1]   --> A'              I+R
     freq ( 39 - 39) =        297.5  [cm-1]   --> A''             I+R
     freq ( 40 - 40) =        297.9  [cm-1]   --> A''             I+R
     freq ( 41 - 41) =        298.2  [cm-1]   --> A'              I+R
     freq ( 42 - 42) =        300.3  [cm-1]   --> A'              I+R
     freq ( 43 - 43) =        316.8  [cm-1]   --> A''             I+R
     freq ( 44 - 44) =        323.0  [cm-1]   --> A''             I+R
     freq ( 45 - 45) =        478.5  [cm-1]   --> A'              I+R
     freq ( 46 - 46) =        480.6  [cm-1]   --> A'              I+R
     freq ( 47 - 47) =        483.6  [cm-1]   --> A'              I+R
     freq ( 48 - 48) =        485.4  [cm-1]   --> A'              I+R
     freq ( 49 - 49) =        486.9  [cm-1]   --> A'              I+R
     freq ( 50 - 50) =        488.0  [cm-1]   --> A'              I+R
     freq ( 51 - 51) =        488.2  [cm-1]   --> A'              I+R
     freq ( 52 - 52) =        491.5  [cm-1]   --> A'              I+R
     freq ( 53 - 53) =        494.4  [cm-1]   --> A'              I+R
     freq ( 54 - 54) =        495.1  [cm-1]   --> A'              I+R
     freq ( 55 - 55) =        499.9  [cm-1]   --> A'              I+R
     freq ( 56 - 56) =        501.0  [cm-1]   --> A'              I+R
     freq ( 57 - 57) =        517.2  [cm-1]   --> A'              I+R
     freq ( 58 - 58) =        519.2  [cm-1]   --> A'              I+R
     freq ( 59 - 59) =        523.6  [cm-1]   --> A'              I+R
     freq ( 60 - 60) =        525.2  [cm-1]   --> A'              I+R
     freq ( 61 - 61) =        531.5  [cm-1]   --> A'              I+R
     freq ( 62 - 62) =        531.9  [cm-1]   --> A'              I+R
     freq ( 63 - 63) =        549.8  [cm-1]   --> A'              I+R
     freq ( 64 - 64) =        553.8  [cm-1]   --> A'              I+R
     freq ( 65 - 65) =        564.4  [cm-1]   --> A'              I+R
     freq ( 66 - 66) =        589.8  [cm-1]   --> A''             I+R
     freq ( 67 - 67) =        598.7  [cm-1]   --> A''             I+R
     freq ( 68 - 68) =        617.8  [cm-1]   --> A''             I+R
     freq ( 69 - 69) =        628.1  [cm-1]   --> A''             I+R
     freq ( 70 - 70) =        630.9  [cm-1]   --> A''             I+R
     freq ( 71 - 71) =        633.1  [cm-1]   --> A''             I+R
     freq ( 72 - 72) =        635.0  [cm-1]   --> A''             I+R
     freq ( 73 - 73) =        636.5  [cm-1]   --> A''             I+R
     freq ( 74 - 74) =        636.7  [cm-1]   --> A''             I+R
     freq ( 75 - 75) =        637.0  [cm-1]   --> A''             I+R
     freq ( 76 - 76) =        638.1  [cm-1]   --> A''             I+R
     freq ( 77 - 77) =        638.9  [cm-1]   --> A''             I+R
     freq ( 78 - 78) =        639.1  [cm-1]   --> A''             I+R
     freq ( 79 - 79) =        639.3  [cm-1]   --> A''             I+R
     freq ( 80 - 80) =        640.1  [cm-1]   --> A''             I+R
     freq ( 81 - 81) =        641.1  [cm-1]   --> A''             I+R
     freq ( 82 - 82) =        651.9  [cm-1]   --> A''             I+R
     freq ( 83 - 83) =        671.4  [cm-1]   --> A'              I+R
     freq ( 84 - 84) =        675.6  [cm-1]   --> A'              I+R
     freq ( 85 - 85) =        679.6  [cm-1]   --> A'              I+R
     freq ( 86 - 86) =        680.7  [cm-1]   --> A'              I+R
     freq ( 87 - 87) =        682.4  [cm-1]   --> A'              I+R
     freq ( 88 - 88) =        684.3  [cm-1]   --> A'              I+R
     freq ( 89 - 89) =        684.5  [cm-1]   --> A'              I+R
     freq ( 90 - 90) =        688.2  [cm-1]   --> A'              I+R
     freq ( 91 - 91) =        689.0  [cm-1]   --> A'              I+R
     freq ( 92 - 92) =        693.5  [cm-1]   --> A'              I+R
     freq ( 93 - 93) =        694.9  [cm-1]   --> A'              I+R
     freq ( 94 - 94) =        695.8  [cm-1]   --> A''             I+R
     freq ( 95 - 95) =        697.9  [cm-1]   --> A'              I+R
     freq ( 96 - 96) =        698.2  [cm-1]   --> A''             I+R
     freq ( 97 - 97) =        700.1  [cm-1]   --> A''             I+R
     freq ( 98 - 98) =        700.3  [cm-1]   --> A''             I+R
     freq ( 99 - 99) =        701.5  [cm-1]   --> A''             I+R
     freq (100 -100) =        708.3  [cm-1]   --> A''             I+R
     freq (101 -101) =        721.8  [cm-1]   --> A''             I+R
     freq (102 -102) =        722.7  [cm-1]   --> A''             I+R
     freq (103 -103) =        722.9  [cm-1]   --> A''             I+R
     freq (104 -104) =        723.7  [cm-1]   --> A''             I+R
     freq (105 -105) =        723.8  [cm-1]   --> A''             I+R
     freq (106 -106) =        737.2  [cm-1]   --> A''             I+R
     freq (107 -107) =        740.1  [cm-1]   --> A'              I+R
     freq (108 -108) =        746.0  [cm-1]   --> A'              I+R
     freq (109 -109) =        748.7  [cm-1]   --> A'              I+R
     freq (110 -110) =        752.5  [cm-1]   --> A'              I+R
     freq (111 -111) =        757.2  [cm-1]   --> A'              I+R
     freq (112 -112) =        758.2  [cm-1]   --> A'              I+R
     freq (113 -113) =        772.0  [cm-1]   --> A''             I+R
     freq (114 -114) =        772.2  [cm-1]   --> A''             I+R
     freq (115 -115) =        774.4  [cm-1]   --> A''             I+R
     freq (116 -116) =        775.3  [cm-1]   --> A''             I+R
     freq (117 -117) =        776.2  [cm-1]   --> A''             I+R
     freq (118 -118) =        786.7  [cm-1]   --> A''             I+R
     freq (119 -119) =        804.3  [cm-1]   --> A''             I+R
     freq (120 -120) =        875.5  [cm-1]   --> A'              I+R
     freq (121 -121) =        877.1  [cm-1]   --> A'              I+R
     freq (122 -122) =        890.7  [cm-1]   --> A'              I+R
     freq (123 -123) =        893.6  [cm-1]   --> A'              I+R
     freq (124 -124) =        895.6  [cm-1]   --> A'              I+R
     freq (125 -125) =        902.3  [cm-1]   --> A'              I+R
     freq (126 -126) =        906.8  [cm-1]   --> A'              I+R
     freq (127 -127) =        907.7  [cm-1]   --> A'              I+R
     freq (128 -128) =       1021.2  [cm-1]   --> A'              I+R
     freq (129 -129) =       1022.7  [cm-1]   --> A'              I+R
     freq (130 -130) =       1026.7  [cm-1]   --> A'              I+R
     freq (131 -131) =       1028.5  [cm-1]   --> A'              I+R
     freq (132 -132) =       1028.8  [cm-1]   --> A'              I+R
     freq (133 -133) =       1028.9  [cm-1]   --> A'              I+R
     freq (134 -134) =       1032.3  [cm-1]   --> A'              I+R
     freq (135 -135) =       1032.7  [cm-1]   --> A'              I+R
     freq (136 -136) =       1034.4  [cm-1]   --> A'              I+R
     freq (137 -137) =       1035.6  [cm-1]   --> A'              I+R
     freq (138 -138) =       1041.7  [cm-1]   --> A'              I+R
     freq (139 -139) =       1045.3  [cm-1]   --> A'              I+R
     freq (140 -140) =       1057.5  [cm-1]   --> A'              I+R
     freq (141 -141) =       1064.2  [cm-1]   --> A'              I+R
     freq (142 -142) =       1148.6  [cm-1]   --> A'              I+R
     freq (143 -143) =       1159.6  [cm-1]   --> A'              I+R
     freq (144 -144) =       1160.2  [cm-1]   --> A'              I+R
     freq (145 -145) =       1165.8  [cm-1]   --> A'              I+R
     freq (146 -146) =       1166.3  [cm-1]   --> A'              I+R
     freq (147 -147) =       1219.8  [cm-1]   --> A'              I+R
     freq (148 -148) =       1231.1  [cm-1]   --> A'              I+R
     freq (149 -149) =       1236.8  [cm-1]   --> A'              I+R
     freq (150 -150) =       1238.1  [cm-1]   --> A'              I+R
     freq (151 -151) =       1241.8  [cm-1]   --> A'              I+R
     freq (152 -152) =       1243.5  [cm-1]   --> A'              I+R
     freq (153 -153) =       1245.1  [cm-1]   --> A'              I+R
     freq (154 -154) =       1245.6  [cm-1]   --> A'              I+R
     freq (155 -155) =       1246.4  [cm-1]   --> A'              I+R
     freq (156 -156) =       1248.2  [cm-1]   --> A'              I+R
     freq (157 -157) =       1249.5  [cm-1]   --> A'              I+R
     freq (158 -158) =       1250.0  [cm-1]   --> A'              I+R
     freq (159 -159) =       1250.6  [cm-1]   --> A'              I+R
     freq (160 -160) =       1252.5  [cm-1]   --> A'              I+R
     freq (161 -161) =       1255.3  [cm-1]   --> A'              I+R
     freq (162 -162) =       1256.6  [cm-1]   --> A'              I+R
     freq (163 -163) =       1257.5  [cm-1]   --> A'              I+R
     freq (164 -164) =       1260.5  [cm-1]   --> A'              I+R
     freq (165 -165) =       1262.8  [cm-1]   --> A'              I+R
     freq (166 -166) =       1263.5  [cm-1]   --> A'              I+R
     freq (167 -167) =       1265.5  [cm-1]   --> A'              I+R
     freq (168 -168) =       1268.9  [cm-1]   --> A'              I+R
     freq (169 -169) =       1270.0  [cm-1]   --> A'              I+R
     freq (170 -170) =       1270.3  [cm-1]   --> A'              I+R
     freq (171 -171) =       1271.5  [cm-1]   --> A'              I+R
     freq (172 -172) =       1273.2  [cm-1]   --> A'              I+R
     freq (173 -173) =       1276.0  [cm-1]   --> A'              I+R
     freq (174 -174) =       1279.9  [cm-1]   --> A'              I+R
     freq (175 -175) =       1281.3  [cm-1]   --> A'              I+R
     freq (176 -176) =       1284.3  [cm-1]   --> A'              I+R
     freq (177 -177) =       1288.8  [cm-1]   --> A'              I+R
     freq (178 -178) =       1289.4  [cm-1]   --> A'              I+R
     freq (179 -179) =       1298.6  [cm-1]   --> A'              I+R
     freq (180 -180) =       1300.4  [cm-1]   --> A'              I+R
     freq (181 -181) =       1300.7  [cm-1]   --> A'              I+R
     freq (182 -182) =       1302.1  [cm-1]   --> A'              I+R
     freq (183 -183) =       1302.4  [cm-1]   --> A'              I+R
     freq (184 -184) =       1303.0  [cm-1]   --> A'              I+R
     freq (185 -185) =       1304.9  [cm-1]   --> A'              I+R
     freq (186 -186) =       1305.7  [cm-1]   --> A'              I+R
     freq (187 -187) =       1307.5  [cm-1]   --> A'              I+R
     freq (188 -188) =       1310.6  [cm-1]   --> A'              I+R
     freq (189 -189) =       1310.6  [cm-1]   --> A'              I+R
     freq (190 -190) =       1313.4  [cm-1]   --> A'              I+R
     freq (191 -191) =       1314.7  [cm-1]   --> A'              I+R
     freq (192 -192) =       1319.4  [cm-1]   --> A'              I+R
     freq (193 -193) =       1319.5  [cm-1]   --> A'              I+R
     freq (194 -194) =       1321.9  [cm-1]   --> A'              I+R
     freq (195 -195) =       1335.7  [cm-1]   --> A'              I+R
     freq (196 -196) =       1340.6  [cm-1]   --> A'              I+R
     freq (197 -197) =       1365.8  [cm-1]   --> A'              I+R
     freq (198 -198) =       1368.5  [cm-1]   --> A'              I+R
     freq (199 -199) =       1422.2  [cm-1]   --> A'              I+R
     freq (200 -200) =       1423.1  [cm-1]   --> A'              I+R
     freq (201 -201) =       1423.7  [cm-1]   --> A'              I+R
     freq (202 -202) =       1429.4  [cm-1]   --> A'              I+R
     freq (203 -203) =       1432.6  [cm-1]   --> A'              I+R
     freq (204 -204) =       1435.0  [cm-1]   --> A'              I+R
     freq (205 -205) =       1449.7  [cm-1]   --> A'              I+R
     freq (206 -206) =       1451.3  [cm-1]   --> A'              I+R
     freq (207 -207) =       1454.6  [cm-1]   --> A'              I+R
     freq (208 -208) =       1455.7  [cm-1]   --> A'              I+R
     freq (209 -209) =       1457.2  [cm-1]   --> A'              I+R
     freq (210 -210) =       1481.7  [cm-1]   --> A'              I+R
     freq (211 -211) =       1507.9  [cm-1]   --> A'              I+R
     freq (212 -212) =       1508.7  [cm-1]   --> A'              I+R
     freq (213 -213) =       1511.6  [cm-1]   --> A'              I+R
     freq (214 -214) =       1514.0  [cm-1]   --> A'              I+R
     freq (215 -215) =       1518.1  [cm-1]   --> A'              I+R
     freq (216 -216) =       1583.1  [cm-1]   --> A'              I+R
 
     PHONON       :     1h57m CPU        2h 1m WALL

     INITIALIZATION: 
     phq_setup    :      0.40s CPU      0.45s WALL (       1 calls)
     phq_init     :     11.62s CPU     11.96s WALL (       1 calls)
 
     phq_init     :     11.62s CPU     11.96s WALL (       1 calls)
     init_vloc    :      0.25s CPU      0.27s WALL (       1 calls)
     init_us_1    :      0.00s CPU      0.02s WALL (       1 calls)
 
     DIELECTRIC CONSTANT AND EFFECTIVE CHARGES:
     solve_e      :    132.02s CPU    134.47s WALL (       1 calls)
     dielec       :      0.24s CPU      0.37s WALL (       1 calls)
     zstar_eu     :     46.33s CPU     48.34s WALL (       1 calls)
 
     DYNAMICAL MATRIX:
     dynmat0      :     10.92s CPU     11.24s WALL (       1 calls)
     phqscf       :   6869.44s CPU   7086.04s WALL (       1 calls)
     dynmatrix    :      0.19s CPU      0.87s WALL (       1 calls)
 
     phqscf       :   6869.44s CPU   7086.04s WALL (       1 calls)
     solve_linter :   6760.06s CPU   6921.23s WALL (     216 calls)
     drhodv       :    101.18s CPU    102.59s WALL (     216 calls)
 
     dynmat0      :     10.92s CPU     11.24s WALL (       1 calls)
     dynmat_us    :      3.75s CPU      3.79s WALL (       1 calls)
     d2ionq       :      6.82s CPU      6.87s WALL (       1 calls)
 
     dynmat_us    :      3.75s CPU      3.79s WALL (       1 calls)
 
     phqscf       :   6869.44s CPU   7086.04s WALL (       1 calls)
     solve_linter :   6760.06s CPU   6921.23s WALL (     216 calls)
 
     solve_linter :   6760.06s CPU   6921.23s WALL (     216 calls)
     dvqpsi_us    :     88.47s CPU     89.86s WALL (     432 calls)
     ortho        :     30.85s CPU     31.13s WALL (    1614 calls)
     cgsolve      :   6141.12s CPU   6199.93s WALL (    1614 calls)
     incdrhoscf   :    240.26s CPU    243.84s WALL (    1611 calls)
     vpsifft      :    186.14s CPU    189.14s WALL (    1371 calls)
     dv_of_drho   :     79.59s CPU     80.56s WALL (    1611 calls)
     mix_pot      :     13.35s CPU     53.70s WALL (    1595 calls)
 
     dvqpsi_us    :     88.47s CPU     89.86s WALL (     432 calls)
     dvqpsi_us_on :     20.72s CPU     21.05s WALL (     432 calls)
 
     cgsolve      :   6141.12s CPU   6199.93s WALL (    1614 calls)
     ch_psi       :   5813.54s CPU   5869.48s WALL (   35850 calls)
 
     ch_psi       :   5813.54s CPU   5869.48s WALL (   35850 calls)
     h_psi        :   4326.80s CPU   4372.74s WALL (   35850 calls)
     last         :   1372.33s CPU   1381.60s WALL (   35850 calls)
 
     h_psi        :   4326.80s CPU   4372.74s WALL (   35850 calls)
     add_vuspsi   :    628.97s CPU    633.37s WALL (   35850 calls)
 
     incdrhoscf   :    240.26s CPU    243.84s WALL (    1611 calls)
 
 
      General routines
     calbec       :   1380.76s CPU   1388.49s WALL (   72577 calls)
     fft          :     51.54s CPU     52.53s WALL (   33856 calls)
     ffts         :     52.84s CPU     53.39s WALL (   47088 calls)
     fftw         :   3153.48s CPU   3193.40s WALL ( 7577382 calls)
     davcio       :      1.95s CPU     26.20s WALL (   17038 calls)
     write_rec    :     11.97s CPU    104.56s WALL (    1811 calls)
 
 
     PHONON       :     1h57m CPU        2h 1m WALL

 
   This run was terminated on:   3:32:24  11Feb2021            

=------------------------------------------------------------------------------=
   JOB DONE.
=------------------------------------------------------------------------------=
