
     Program PWSCF v.6.1 (svn rev. 13369) starts on  9Oct2019 at 11: 7:44 

     This program is part of the open-source Quantum ESPRESSO suite
     for quantum simulation of materials; please cite
         "P. Giannozzi et al., J. Phys.:Condens. Matter 21 395502 (2009);
          URL http://www.quantum-espresso.org", 
     in publications or presentations arising from this work. More details at
     http://www.quantum-espresso.org/quote

     Parallel version (MPI), running on    64 processors
     K-points division:     npool     =       8
     R & G space division:  proc/nbgrp/npool/nimage =       8
     Reading input from relax.in

     Current dimensions of program PWSCF are:
     Max number of different atomic species (ntypx) = 10
     Max number of k-points (npk) =  40000
     Max angular momentum in pseudopotentials (lmaxx) =  3

     Subspace diagonalization in iterative solution of the eigenvalue problem:
     one sub-group per band group will be used
     scalapack distributed-memory algorithm (size of sub-group:  2*  2 procs)

 
     Parallelization info
     --------------------
     sticks:   dense  smooth     PW     G-vecs:    dense   smooth      PW
     Min         777     519    138                67649    36803    5096
     Max         778     520    139                67652    36806    5099
     Sum        6217    4153   1111               541199   294431   40789
 


     bravais-lattice index     =            0
     lattice parameter (alat)  =      19.3984  a.u.
     unit-cell volume          =    8616.2325 (a.u.)^3
     number of atoms/cell      =          120
     number of atomic types    =            4
     number of electrons       =      1195.00
     number of Kohn-Sham states=          718
     kinetic-energy cutoff     =      40.0000  Ry
     charge density cutoff     =     240.0000  Ry
     convergence threshold     =      1.0E-07
     mixing beta               =       0.3000
     number of iterations used =            8  plain     mixing
     Exchange-correlation      =  SLA  PW   PBX  PBC ( 1  4  3  4 0 0)
     nstep                     =           50


     celldm(1)=  19.398401  celldm(2)=   0.000000  celldm(3)=   0.000000
     celldm(4)=   0.000000  celldm(5)=   0.000000  celldm(6)=   0.000000

     crystal axes: (cart. coord. in units of alat)
               a(1) = (   1.000000   0.000000   0.000000 )  
               a(2) = (  -0.500000   0.866025   0.000000 )  
               a(3) = (   0.000000   0.000000   1.362978 )  

     reciprocal axes: (cart. coord. in units 2 pi/alat)
               b(1) = (  1.000000  0.577350  0.000000 )  
               b(2) = (  0.000000  1.154700  0.000000 )  
               b(3) = (  0.000000  0.000000  0.733687 )  


     PseudoPot. # 1 for O  read from file:
     /home/tjsmart/Pseudo/o_pbe_v1.2.uspp.F.UPF
     MD5 check sum: 734c27235a0248c51dbae37a1fbe46ec
     Pseudo is Ultrasoft + core correction, Zval =  6.0
     Generated by new atomic code, or converted to UPF format
     Using radial grid of  737 points,  5 beta functions with: 
                l(1) =   0
                l(2) =   0
                l(3) =   1
                l(4) =   1
                l(5) =   2
     Q(r) pseudized with  8 coefficients,  rinner =    0.900   0.900   0.900
                                                       0.900   0.900

     PseudoPot. # 2 for Fe read from file:
     /home/tjsmart/Pseudo/fe_pbe_v1.5.uspp.F.UPF
     MD5 check sum: a130daea23fe5165f5d574ae7f82ed95
     Pseudo is Ultrasoft + core correction, Zval = 16.0
     Generated by new atomic code, or converted to UPF format
     Using radial grid of  861 points,  6 beta functions with: 
                l(1) =   0
                l(2) =   0
                l(3) =   1
                l(4) =   1
                l(5) =   2
                l(6) =   2
     Q(r) pseudized with  8 coefficients,  rinner =    1.000   1.000   1.000
                                                       1.000   1.000

     PseudoPot. # 3 for Fe read from file:
     /home/tjsmart/Pseudo/fe_pbe_v1.5.uspp.F.UPF
     MD5 check sum: a130daea23fe5165f5d574ae7f82ed95
     Pseudo is Ultrasoft + core correction, Zval = 16.0
     Generated by new atomic code, or converted to UPF format
     Using radial grid of  861 points,  6 beta functions with: 
                l(1) =   0
                l(2) =   0
                l(3) =   1
                l(4) =   1
                l(5) =   2
                l(6) =   2
     Q(r) pseudized with  8 coefficients,  rinner =    1.000   1.000   1.000
                                                       1.000   1.000

     PseudoPot. # 4 for Sn read from file:
     /home/tjsmart/Pseudo/sn_pbe_v1.4.uspp.F.UPF
     MD5 check sum: 469debedee59599fedebd795477fea03
     Pseudo is Ultrasoft + core correction, Zval = 14.0
     Generated by new atomic code, or converted to UPF format
     Using radial grid of  891 points,  6 beta functions with: 
                l(1) =   0
                l(2) =   0
                l(3) =   1
                l(4) =   1
                l(5) =   2
                l(6) =   2
     Q(r) pseudized with  8 coefficients,  rinner =    1.350   1.350   1.350
                                                       1.350   1.350

     atomic species   valence    mass     pseudopotential
        O              6.00     1.00000     O ( 1.00)
        Fe1           16.00     1.00000     Fe( 1.00)
        Fe2           16.00     1.00000     Fe( 1.00)
        Sn            14.00     1.00000     Sn( 1.00)

     Starting magnetic structure 
     atomic species   magnetization
        O            0.000
        Fe1         -0.500
        Fe2          0.500
        Sn           0.000


     Simplified LDA+U calculation (l_max = 2) with parameters (eV):
     atomic species    L          U    alpha       J0     beta
        Fe1            2     4.3000   0.0000   0.0000   0.0000
        Fe2            2     4.3000   0.0000   0.0000   0.0000



     No symmetry found



   Cartesian axes

     site n.     atom                  positions (alat units)
         1           O   tau(   1) = (   0.1525770   0.2883272   1.2490691  )
         2           O   tau(   2) = (  -0.0762455   0.4204833   1.2487191  )
         3           O   tau(   3) = (   0.3262155   0.2761974   0.1123429  )
         4           O   tau(   4) = (   0.3262348   0.0122552   0.1131645  )
         5           O   tau(   5) = (   0.0975616   0.1442055   0.1133354  )
         6           O   tau(   6) = (  -0.0764479   0.1562822   1.2492461  )
         7           O   tau(   7) = (   0.1550955   0.0011644   0.3412918  )
         8           O   tau(   8) = (  -0.0782836   0.1295754   0.3403839  )
         9           O   tau(   9) = (   0.0713723   0.4206913   0.5683918  )
        10           O   tau(  10) = (   0.0756230   0.1567433   0.5681227  )
        11           O   tau(  11) = (  -0.1524058   0.2912506   0.5673639  )
        12           O   tau(  12) = (   0.1697179   0.2986682   0.3406508  )
        13           O   tau(  13) = (   0.4015805   0.1442520   0.7963918  )
        14           O   tau(  14) = (   0.1741600   0.2763368   0.7955723  )
        15           O   tau(  15) = (   0.0763401   0.1322544   1.0230452  )
        16           O   tau(  16) = (  -0.1736782   0.3014106   1.0232320  )
        17           O   tau(  17) = (   0.3470554   0.0001705   1.0231320  )
        18           O   tau(  18) = (   0.1735009   0.0129729   0.7962391  )
        19           Fe1 tau(  19) = (  -0.0006256   0.2871953   0.0281765  )
        20           Fe2 tau(  20) = (   0.0009618  -0.0012333   0.1973063  )
        21           Fe1 tau(  21) = (   0.2498833   0.1441371   1.3336349  )
        22           Fe2 tau(  22) = (  -0.0000631  -0.0003450   1.1664475  )
        23           Fe1 tau(  23) = (   0.0005023  -0.0025372   0.4818621  )
        24           Fe2 tau(  24) = (   0.2475811   0.1413884   0.6540888  )
        25           Fe1 tau(  25) = (  -0.0062830   0.2842555   0.4240986  )
        26           Fe2 tau(  26) = (   0.2504689   0.1430424   0.2547222  )
        27           Fe1 tau(  27) = (   0.2499624   0.1446424   0.9391268  )
        28           Fe2 tau(  28) = (   0.0001434   0.2889520   1.1078481  )
        29           Fe1 tau(  29) = (   0.0010874   0.0030015   0.8834459  )
        30           Fe2 tau(  30) = (   0.0005738   0.2868396   0.7126997  )
        31           O   tau(  31) = (   0.6522853   0.2886861   1.2491521  )
        32           O   tau(  32) = (   0.4236255   0.4209336   1.2491948  )
        33           O   tau(  33) = (   0.8260178   0.2761047   0.1123102  )
        34           O   tau(  34) = (   0.8260705   0.0117176   0.1136798  )
        35           O   tau(  35) = (   0.5970751   0.1446452   0.1114169  )
        36           O   tau(  36) = (   0.4234331   0.1566850   1.2490380  )
        37           O   tau(  37) = (   0.6449203   0.0080756   0.3387533  )
        38           O   tau(  38) = (   0.4215015   0.1328748   0.3412602  )
        39           O   tau(  39) = (   0.5777584   0.4186824   0.5675303  )
        40           O   tau(  40) = (   0.5757004   0.1568519   0.5685676  )
        41           O   tau(  41) = (   0.3486331   0.2858236   0.5687025  )
        42           O   tau(  42) = (   0.6751383   0.3013656   0.3391849  )
        43           O   tau(  43) = (   0.9021730   0.1458320   0.7977543  )
        44           O   tau(  44) = (   0.6735538   0.2776159   0.7960736  )
        45           O   tau(  45) = (   0.5759550   0.1322346   1.0232423  )
        46           O   tau(  46) = (   0.3264029   0.3009479   1.0228122  )
        47           O   tau(  47) = (   0.8471696  -0.0001815   1.0222084  )
        48           O   tau(  48) = (   0.6706204   0.0172067   0.7965781  )
        49           Fe1 tau(  49) = (   0.5000943   0.2888653   0.0284247  )
        50           Fe2 tau(  50) = (   0.5001841   0.0003229   0.1970821  )
        51           Fe1 tau(  51) = (   0.7495907   0.1442772   1.3333123  )
        52           Fe2 tau(  52) = (   0.5001367   0.0001396   1.1665733  )
        53           Fe1 tau(  53) = (   0.4993306  -0.0002804   0.4824016  )
        54           Fe2 tau(  54) = (   0.7494943   0.1526978   0.6530259  )
        55           Fe1 tau(  55) = (   0.5054055   0.2842137   0.4241621  )
        56           Fe2 tau(  56) = (   0.7491538   0.1443225   0.2532047  )
        57           Fe1 tau(  57) = (   0.7502010   0.1456278   0.9408768  )
        58           Fe2 tau(  58) = (   0.5001022   0.2884777   1.1080381  )
        59           Fe1 tau(  59) = (   0.4960180   0.0002082   0.8837332  )
        60           Fe2 tau(  60) = (   0.4996902   0.2874623   0.7129138  )
        61           O   tau(  61) = (  -0.0973185   0.7216549   1.2492845  )
        62           O   tau(  62) = (  -0.3261676   0.8537176   1.2492247  )
        63           O   tau(  63) = (   0.0763464   0.7088204   0.1136975  )
        64           O   tau(  64) = (   0.0749836   0.4444991   0.1103594  )
        65           O   tau(  65) = (  -0.1523127   0.5771599   0.1129770  )
        66           O   tau(  66) = (  -0.3260177   0.5895888   1.2490899  )
        67           O   tau(  67) = (  -0.0978568   0.4319779   0.3395292  )
        68           O   tau(  68) = (  -0.3245754   0.5649471   0.3399349  )
        69           O   tau(  69) = (  -0.1736492   0.8534898   0.5690734  )
        70           O   tau(  70) = (  -0.1765992   0.5897752   0.5681765  )
        71           O   tau(  71) = (  -0.4011087   0.7217459   0.5692222  )
        72           O   tau(  72) = (  -0.0759844   0.7330734   0.3414365  )
        73           O   tau(  73) = (   0.1515208   0.5736104   0.7950572  )
        74           O   tau(  74) = (  -0.0773632   0.7089116   0.7974316  )
        75           O   tau(  75) = (  -0.1740245   0.5650526   1.0231425  )
        76           O   tau(  76) = (  -0.4236806   0.7340767   1.0228858  )
        77           O   tau(  77) = (   0.0977062   0.4327400   1.0227146  )
        78           O   tau(  78) = (  -0.0766179   0.4446481   0.7962262  )
        79           Fe1 tau(  79) = (  -0.2493278   0.7217181   0.0286173  )
        80           Fe2 tau(  80) = (  -0.2498815   0.4326202   0.1961009  )
        81           Fe1 tau(  81) = (  -0.0000663   0.5769615   1.3332468  )
        82           Fe2 tau(  82) = (  -0.2499928   0.4329462   1.1660187  )
        83           Fe1 tau(  83) = (  -0.2500352   0.4347628   0.4801795  )
        84           Fe2 tau(  84) = (  -0.0084591   0.5764800   0.6555915  )
        85           Fe1 tau(  85) = (  -0.2498149   0.7224908   0.4244518  )
        86           Fe2 tau(  86) = (  -0.0018570   0.5768147   0.2547698  )
        87           Fe1 tau(  87) = (  -0.0009931   0.5770027   0.9410227  )
        88           Fe2 tau(  88) = (  -0.2503691   0.7216635   1.1078960  )
        89           Fe1 tau(  89) = (  -0.2495400   0.4331069   0.8816439  )
        90           Fe2 tau(  90) = (  -0.2500661   0.7237111   0.7111527  )
        91           O   tau(  91) = (   0.4023101   0.7215544   1.2490333  )
        92           O   tau(  92) = (   0.1738557   0.8534127   1.2494255  )
        93           O   tau(  93) = (   0.5773647   0.7089128   0.1115883  )
        94           O   tau(  94) = (   0.5763182   0.4450615   0.1130048  )
        95           O   tau(  95) = (   0.3483932   0.5776810   0.1120026  )
        96           O   tau(  96) = (   0.1736624   0.5895712   1.2492833  )
        97           O   tau(  97) = (   0.4044795   0.4297667   0.3407350  )
        98           O   tau(  98) = (   0.1745410   0.5592294   0.3343372  )
        99           O   tau(  99) = (   0.3281029   0.8611395   0.5729025  )
       100           O   tau( 100) = (   0.3331007   0.5915494   0.5693676  )
       101           O   tau( 101) = (   0.0924634   0.7186212   0.5713669  )
       102           O   tau( 102) = (   0.4353324   0.7341916   0.3387994  )
       103           O   tau( 103) = (   0.6537479   0.5774678   0.7963577  )
       104           O   tau( 104) = (   0.4279291   0.7096294   0.7958271  )
       105           O   tau( 105) = (   0.3263089   0.5653149   1.0222590  )
       106           O   tau( 106) = (   0.0764507   0.7338032   1.0223101  )
       107           O   tau( 107) = (   0.5976089   0.4326953   1.0230208  )
       108           O   tau( 108) = (   0.4245727   0.4449739   0.7959278  )
       109           Fe1 tau( 109) = (   0.2497663   0.7221046   0.0292608  )
       110           Fe2 tau( 110) = (   0.2487518   0.4336509   0.1888707  )
       111           Fe1 tau( 111) = (   0.5003231   0.5775347   1.3331956  )
       112           Fe2 tau( 112) = (   0.2498047   0.4331076   1.1664102  )
       113           Sn  tau( 113) = (   0.2489001   0.4338988   0.4788092  )
       114           Fe2 tau( 114) = (   0.5105768   0.5738028   0.6552117  )
       115           Fe1 tau( 115) = (   0.2521347   0.7314875   0.4120396  )
       116           Fe2 tau( 116) = (   0.5024986   0.5780775   0.2544982  )
       117           Fe1 tau( 117) = (   0.5006450   0.5764938   0.9410104  )
       118           Fe2 tau( 118) = (   0.2499511   0.7216597   1.1080031  )
       119           Fe1 tau( 119) = (   0.2520845   0.4302905   0.8832264  )
       120           Sn  tau( 120) = (   0.2495421   0.7239070   0.7060982  )

     number of k points=     8  Methfessel-Paxton smearing, width (Ry)=  0.0050
                       cart. coord. in units 2pi/alat
        k(    1) = (   0.0000000   0.0000000   0.0000000), wk =   0.1250000
        k(    2) = (   0.0000000   0.0000000  -0.3668437), wk =   0.1250000
        k(    3) = (   0.0000000  -0.5773502   0.0000000), wk =   0.1250000
        k(    4) = (   0.0000000  -0.5773502  -0.3668437), wk =   0.1250000
        k(    5) = (   0.5000000  -0.2886751   0.0000000), wk =   0.1250000
        k(    6) = (  -0.5000000  -0.2886751   0.0000000), wk =   0.1250000
        k(    7) = (   0.5000000  -0.2886751  -0.3668437), wk =   0.1250000
        k(    8) = (  -0.5000000  -0.2886751  -0.3668437), wk =   0.1250000

     Dense  grid:   541199 G-vectors     FFT dimensions: (  96,  96, 135)

     Smooth grid:   294431 G-vectors     FFT dimensions: (  80,  80, 108)

     Estimated max dynamical RAM per process >     846.99MB

     Estimated total allocated dynamical RAM >   54207.34MB
     Generating pointlists ...
     new r_m :   0.0783 (alat units)  1.5180 (a.u.) for type    1
     new r_m :   0.0784 (alat units)  1.5207 (a.u.) for type    2
     new r_m :   0.0783 (alat units)  1.5180 (a.u.) for type    3
     new r_m :   0.0822 (alat units)  1.5947 (a.u.) for type    4

     Check: negative/imaginary core charge=   -0.000024    0.000000

     Initial potential from superposition of free atoms

     starting charge 1147.99954, renormalised to 1195.00000
     Number of +U iterations with fixed ns =  0
     Starting occupations:
 --- enter write_ns ---
 LDA+U parameters:
U( 2)     =  4.30000000
alpha( 2) =  0.00000000
U( 3)     =  4.30000000
alpha( 3) =  0.00000000
atom   19   Tr[ns(na)] (up, down, total) =   1.00000  5.00000  6.00000
   spin  1
    eigenvalues: 
  0.200  0.200  0.200  0.200  0.200
    eigenvectors:
  1.000  0.000  0.000  0.000  0.000
  0.000  1.000  0.000  0.000  0.000
  0.000  0.000  1.000  0.000  0.000
  0.000  0.000  0.000  1.000  0.000
  0.000  0.000  0.000  0.000  1.000
    occupations:
  0.200  0.000  0.000  0.000  0.000
  0.000  0.200  0.000  0.000  0.000
  0.000  0.000  0.200  0.000  0.000
  0.000  0.000  0.000  0.200  0.000
  0.000  0.000  0.000  0.000  0.200
   spin  2
    eigenvalues: 
  1.000  1.000  1.000  1.000  1.000
    eigenvectors:
  1.000  0.000  0.000  0.000  0.000
  0.000  1.000  0.000  0.000  0.000
  0.000  0.000  1.000  0.000  0.000
  0.000  0.000  0.000  1.000  0.000
  0.000  0.000  0.000  0.000  1.000
    occupations:
  1.000  0.000  0.000  0.000  0.000
  0.000  1.000  0.000  0.000  0.000
  0.000  0.000  1.000  0.000  0.000
  0.000  0.000  0.000  1.000  0.000
  0.000  0.000  0.000  0.000  1.000
atomic mag. moment =    -4.000000
atom   20   Tr[ns(na)] (up, down, total) =   5.00000  1.00000  6.00000
   spin  1
    eigenvalues: 
  1.000  1.000  1.000  1.000  1.000
    eigenvectors:
  1.000  0.000  0.000  0.000  0.000
  0.000  1.000  0.000  0.000  0.000
  0.000  0.000  1.000  0.000  0.000
  0.000  0.000  0.000  1.000  0.000
  0.000  0.000  0.000  0.000  1.000
    occupations:
  1.000  0.000  0.000  0.000  0.000
  0.000  1.000  0.000  0.000  0.000
  0.000  0.000  1.000  0.000  0.000
  0.000  0.000  0.000  1.000  0.000
  0.000  0.000  0.000  0.000  1.000
   spin  2
    eigenvalues: 
  0.200  0.200  0.200  0.200  0.200
    eigenvectors:
  1.000  0.000  0.000  0.000  0.000
  0.000  1.000  0.000  0.000  0.000
  0.000  0.000  1.000  0.000  0.000
  0.000  0.000  0.000  1.000  0.000
  0.000  0.000  0.000  0.000  1.000
    occupations:
  0.200  0.000  0.000  0.000  0.000
  0.000  0.200  0.000  0.000  0.000
  0.000  0.000  0.200  0.000  0.000
  0.000  0.000  0.000  0.200  0.000
  0.000  0.000  0.000  0.000  0.200
atomic mag. moment =     4.000000
atom   21   Tr[ns(na)] (up, down, total) =   1.00000  5.00000  6.00000
   spin  1
    eigenvalues: 
  0.200  0.200  0.200  0.200  0.200
    eigenvectors:
  1.000  0.000  0.000  0.000  0.000
  0.000  1.000  0.000  0.000  0.000
  0.000  0.000  1.000  0.000  0.000
  0.000  0.000  0.000  1.000  0.000
  0.000  0.000  0.000  0.000  1.000
    occupations:
  0.200  0.000  0.000  0.000  0.000
  0.000  0.200  0.000  0.000  0.000
  0.000  0.000  0.200  0.000  0.000
  0.000  0.000  0.000  0.200  0.000
  0.000  0.000  0.000  0.000  0.200
   spin  2
    eigenvalues: 
  1.000  1.000  1.000  1.000  1.000
    eigenvectors:
  1.000  0.000  0.000  0.000  0.000
  0.000  1.000  0.000  0.000  0.000
  0.000  0.000  1.000  0.000  0.000
  0.000  0.000  0.000  1.000  0.000
  0.000  0.000  0.000  0.000  1.000
    occupations:
  1.000  0.000  0.000  0.000  0.000
  0.000  1.000  0.000  0.000  0.000
  0.000  0.000  1.000  0.000  0.000
  0.000  0.000  0.000  1.000  0.000
  0.000  0.000  0.000  0.000  1.000
atomic mag. moment =    -4.000000
atom   22   Tr[ns(na)] (up, down, total) =   5.00000  1.00000  6.00000
   spin  1
    eigenvalues: 
  1.000  1.000  1.000  1.000  1.000
    eigenvectors:
  1.000  0.000  0.000  0.000  0.000
  0.000  1.000  0.000  0.000  0.000
  0.000  0.000  1.000  0.000  0.000
  0.000  0.000  0.000  1.000  0.000
  0.000  0.000  0.000  0.000  1.000
    occupations:
  1.000  0.000  0.000  0.000  0.000
  0.000  1.000  0.000  0.000  0.000
  0.000  0.000  1.000  0.000  0.000
  0.000  0.000  0.000  1.000  0.000
  0.000  0.000  0.000  0.000  1.000
   spin  2
    eigenvalues: 
  0.200  0.200  0.200  0.200  0.200
    eigenvectors:
  1.000  0.000  0.000  0.000  0.000
  0.000  1.000  0.000  0.000  0.000
  0.000  0.000  1.000  0.000  0.000
  0.000  0.000  0.000  1.000  0.000
  0.000  0.000  0.000  0.000  1.000
    occupations:
  0.200  0.000  0.000  0.000  0.000
  0.000  0.200  0.000  0.000  0.000
  0.000  0.000  0.200  0.000  0.000
  0.000  0.000  0.000  0.200  0.000
  0.000  0.000  0.000  0.000  0.200
atomic mag. moment =     4.000000
atom   23   Tr[ns(na)] (up, down, total) =   1.00000  5.00000  6.00000
   spin  1
    eigenvalues: 
  0.200  0.200  0.200  0.200  0.200
    eigenvectors:
  1.000  0.000  0.000  0.000  0.000
  0.000  1.000  0.000  0.000  0.000
  0.000  0.000  1.000  0.000  0.000
  0.000  0.000  0.000  1.000  0.000
  0.000  0.000  0.000  0.000  1.000
    occupations:
  0.200  0.000  0.000  0.000  0.000
  0.000  0.200  0.000  0.000  0.000
  0.000  0.000  0.200  0.000  0.000
  0.000  0.000  0.000  0.200  0.000
  0.000  0.000  0.000  0.000  0.200
   spin  2
    eigenvalues: 
  1.000  1.000  1.000  1.000  1.000
    eigenvectors:
  1.000  0.000  0.000  0.000  0.000
  0.000  1.000  0.000  0.000  0.000
  0.000  0.000  1.000  0.000  0.000
  0.000  0.000  0.000  1.000  0.000
  0.000  0.000  0.000  0.000  1.000
    occupations:
  1.000  0.000  0.000  0.000  0.000
  0.000  1.000  0.000  0.000  0.000
  0.000  0.000  1.000  0.000  0.000
  0.000  0.000  0.000  1.000  0.000
  0.000  0.000  0.000  0.000  1.000
atomic mag. moment =    -4.000000
atom   24   Tr[ns(na)] (up, down, total) =   5.00000  1.00000  6.00000
   spin  1
    eigenvalues: 
  1.000  1.000  1.000  1.000  1.000
    eigenvectors:
  1.000  0.000  0.000  0.000  0.000
  0.000  1.000  0.000  0.000  0.000
  0.000  0.000  1.000  0.000  0.000
  0.000  0.000  0.000  1.000  0.000
  0.000  0.000  0.000  0.000  1.000
    occupations:
  1.000  0.000  0.000  0.000  0.000
  0.000  1.000  0.000  0.000  0.000
  0.000  0.000  1.000  0.000  0.000
  0.000  0.000  0.000  1.000  0.000
  0.000  0.000  0.000  0.000  1.000
   spin  2
    eigenvalues: 
  0.200  0.200  0.200  0.200  0.200
    eigenvectors:
  1.000  0.000  0.000  0.000  0.000
  0.000  1.000  0.000  0.000  0.000
  0.000  0.000  1.000  0.000  0.000
  0.000  0.000  0.000  1.000  0.000
  0.000  0.000  0.000  0.000  1.000
    occupations:
  0.200  0.000  0.000  0.000  0.000
  0.000  0.200  0.000  0.000  0.000
  0.000  0.000  0.200  0.000  0.000
  0.000  0.000  0.000  0.200  0.000
  0.000  0.000  0.000  0.000  0.200
atomic mag. moment =     4.000000
atom   25   Tr[ns(na)] (up, down, total) =   1.00000  5.00000  6.00000
   spin  1
    eigenvalues: 
  0.200  0.200  0.200  0.200  0.200
    eigenvectors:
  1.000  0.000  0.000  0.000  0.000
  0.000  1.000  0.000  0.000  0.000
  0.000  0.000  1.000  0.000  0.000
  0.000  0.000  0.000  1.000  0.000
  0.000  0.000  0.000  0.000  1.000
    occupations:
  0.200  0.000  0.000  0.000  0.000
  0.000  0.200  0.000  0.000  0.000
  0.000  0.000  0.200  0.000  0.000
  0.000  0.000  0.000  0.200  0.000
  0.000  0.000  0.000  0.000  0.200
   spin  2
    eigenvalues: 
  1.000  1.000  1.000  1.000  1.000
    eigenvectors:
  1.000  0.000  0.000  0.000  0.000
  0.000  1.000  0.000  0.000  0.000
  0.000  0.000  1.000  0.000  0.000
  0.000  0.000  0.000  1.000  0.000
  0.000  0.000  0.000  0.000  1.000
    occupations:
  1.000  0.000  0.000  0.000  0.000
  0.000  1.000  0.000  0.000  0.000
  0.000  0.000  1.000  0.000  0.000
  0.000  0.000  0.000  1.000  0.000
  0.000  0.000  0.000  0.000  1.000
atomic mag. moment =    -4.000000
atom   26   Tr[ns(na)] (up, down, total) =   5.00000  1.00000  6.00000
   spin  1
    eigenvalues: 
  1.000  1.000  1.000  1.000  1.000
    eigenvectors:
  1.000  0.000  0.000  0.000  0.000
  0.000  1.000  0.000  0.000  0.000
  0.000  0.000  1.000  0.000  0.000
  0.000  0.000  0.000  1.000  0.000
  0.000  0.000  0.000  0.000  1.000
    occupations:
  1.000  0.000  0.000  0.000  0.000
  0.000  1.000  0.000  0.000  0.000
  0.000  0.000  1.000  0.000  0.000
  0.000  0.000  0.000  1.000  0.000
  0.000  0.000  0.000  0.000  1.000
   spin  2
    eigenvalues: 
  0.200  0.200  0.200  0.200  0.200
    eigenvectors:
  1.000  0.000  0.000  0.000  0.000
  0.000  1.000  0.000  0.000  0.000
  0.000  0.000  1.000  0.000  0.000
  0.000  0.000  0.000  1.000  0.000
  0.000  0.000  0.000  0.000  1.000
    occupations:
  0.200  0.000  0.000  0.000  0.000
  0.000  0.200  0.000  0.000  0.000
  0.000  0.000  0.200  0.000  0.000
  0.000  0.000  0.000  0.200  0.000
  0.000  0.000  0.000  0.000  0.200
atomic mag. moment =     4.000000
atom   27   Tr[ns(na)] (up, down, total) =   1.00000  5.00000  6.00000
   spin  1
    eigenvalues: 
  0.200  0.200  0.200  0.200  0.200
    eigenvectors:
  1.000  0.000  0.000  0.000  0.000
  0.000  1.000  0.000  0.000  0.000
  0.000  0.000  1.000  0.000  0.000
  0.000  0.000  0.000  1.000  0.000
  0.000  0.000  0.000  0.000  1.000
    occupations:
  0.200  0.000  0.000  0.000  0.000
  0.000  0.200  0.000  0.000  0.000
  0.000  0.000  0.200  0.000  0.000
  0.000  0.000  0.000  0.200  0.000
  0.000  0.000  0.000  0.000  0.200
   spin  2
    eigenvalues: 
  1.000  1.000  1.000  1.000  1.000
    eigenvectors:
  1.000  0.000  0.000  0.000  0.000
  0.000  1.000  0.000  0.000  0.000
  0.000  0.000  1.000  0.000  0.000
  0.000  0.000  0.000  1.000  0.000
  0.000  0.000  0.000  0.000  1.000
    occupations:
  1.000  0.000  0.000  0.000  0.000
  0.000  1.000  0.000  0.000  0.000
  0.000  0.000  1.000  0.000  0.000
  0.000  0.000  0.000  1.000  0.000
  0.000  0.000  0.000  0.000  1.000
atomic mag. moment =    -4.000000
atom   28   Tr[ns(na)] (up, down, total) =   5.00000  1.00000  6.00000
   spin  1
    eigenvalues: 
  1.000  1.000  1.000  1.000  1.000
    eigenvectors:
  1.000  0.000  0.000  0.000  0.000
  0.000  1.000  0.000  0.000  0.000
  0.000  0.000  1.000  0.000  0.000
  0.000  0.000  0.000  1.000  0.000
  0.000  0.000  0.000  0.000  1.000
    occupations:
  1.000  0.000  0.000  0.000  0.000
  0.000  1.000  0.000  0.000  0.000
  0.000  0.000  1.000  0.000  0.000
  0.000  0.000  0.000  1.000  0.000
  0.000  0.000  0.000  0.000  1.000
   spin  2
    eigenvalues: 
  0.200  0.200  0.200  0.200  0.200
    eigenvectors:
  1.000  0.000  0.000  0.000  0.000
  0.000  1.000  0.000  0.000  0.000
  0.000  0.000  1.000  0.000  0.000
  0.000  0.000  0.000  1.000  0.000
  0.000  0.000  0.000  0.000  1.000
    occupations:
  0.200  0.000  0.000  0.000  0.000
  0.000  0.200  0.000  0.000  0.000
  0.000  0.000  0.200  0.000  0.000
  0.000  0.000  0.000  0.200  0.000
  0.000  0.000  0.000  0.000  0.200
atomic mag. moment =     4.000000
atom   29   Tr[ns(na)] (up, down, total) =   1.00000  5.00000  6.00000
   spin  1
    eigenvalues: 
  0.200  0.200  0.200  0.200  0.200
    eigenvectors:
  1.000  0.000  0.000  0.000  0.000
  0.000  1.000  0.000  0.000  0.000
  0.000  0.000  1.000  0.000  0.000
  0.000  0.000  0.000  1.000  0.000
  0.000  0.000  0.000  0.000  1.000
    occupations:
  0.200  0.000  0.000  0.000  0.000
  0.000  0.200  0.000  0.000  0.000
  0.000  0.000  0.200  0.000  0.000
  0.000  0.000  0.000  0.200  0.000
  0.000  0.000  0.000  0.000  0.200
   spin  2
    eigenvalues: 
  1.000  1.000  1.000  1.000  1.000
    eigenvectors:
  1.000  0.000  0.000  0.000  0.000
  0.000  1.000  0.000  0.000  0.000
  0.000  0.000  1.000  0.000  0.000
  0.000  0.000  0.000  1.000  0.000
  0.000  0.000  0.000  0.000  1.000
    occupations:
  1.000  0.000  0.000  0.000  0.000
  0.000  1.000  0.000  0.000  0.000
  0.000  0.000  1.000  0.000  0.000
  0.000  0.000  0.000  1.000  0.000
  0.000  0.000  0.000  0.000  1.000
atomic mag. moment =    -4.000000
atom   30   Tr[ns(na)] (up, down, total) =   5.00000  1.00000  6.00000
   spin  1
    eigenvalues: 
  1.000  1.000  1.000  1.000  1.000
    eigenvectors:
  1.000  0.000  0.000  0.000  0.000
  0.000  1.000  0.000  0.000  0.000
  0.000  0.000  1.000  0.000  0.000
  0.000  0.000  0.000  1.000  0.000
  0.000  0.000  0.000  0.000  1.000
    occupations:
  1.000  0.000  0.000  0.000  0.000
  0.000  1.000  0.000  0.000  0.000
  0.000  0.000  1.000  0.000  0.000
  0.000  0.000  0.000  1.000  0.000
  0.000  0.000  0.000  0.000  1.000
   spin  2
    eigenvalues: 
  0.200  0.200  0.200  0.200  0.200
    eigenvectors:
  1.000  0.000  0.000  0.000  0.000
  0.000  1.000  0.000  0.000  0.000
  0.000  0.000  1.000  0.000  0.000
  0.000  0.000  0.000  1.000  0.000
  0.000  0.000  0.000  0.000  1.000
    occupations:
  0.200  0.000  0.000  0.000  0.000
  0.000  0.200  0.000  0.000  0.000
  0.000  0.000  0.200  0.000  0.000
  0.000  0.000  0.000  0.200  0.000
  0.000  0.000  0.000  0.000  0.200
atomic mag. moment =     4.000000
atom   49   Tr[ns(na)] (up, down, total) =   1.00000  5.00000  6.00000
   spin  1
    eigenvalues: 
  0.200  0.200  0.200  0.200  0.200
    eigenvectors:
  1.000  0.000  0.000  0.000  0.000
  0.000  1.000  0.000  0.000  0.000
  0.000  0.000  1.000  0.000  0.000
  0.000  0.000  0.000  1.000  0.000
  0.000  0.000  0.000  0.000  1.000
    occupations:
  0.200  0.000  0.000  0.000  0.000
  0.000  0.200  0.000  0.000  0.000
  0.000  0.000  0.200  0.000  0.000
  0.000  0.000  0.000  0.200  0.000
  0.000  0.000  0.000  0.000  0.200
   spin  2
    eigenvalues: 
  1.000  1.000  1.000  1.000  1.000
    eigenvectors:
  1.000  0.000  0.000  0.000  0.000
  0.000  1.000  0.000  0.000  0.000
  0.000  0.000  1.000  0.000  0.000
  0.000  0.000  0.000  1.000  0.000
  0.000  0.000  0.000  0.000  1.000
    occupations:
  1.000  0.000  0.000  0.000  0.000
  0.000  1.000  0.000  0.000  0.000
  0.000  0.000  1.000  0.000  0.000
  0.000  0.000  0.000  1.000  0.000
  0.000  0.000  0.000  0.000  1.000
atomic mag. moment =    -4.000000
atom   50   Tr[ns(na)] (up, down, total) =   5.00000  1.00000  6.00000
   spin  1
    eigenvalues: 
  1.000  1.000  1.000  1.000  1.000
    eigenvectors:
  1.000  0.000  0.000  0.000  0.000
  0.000  1.000  0.000  0.000  0.000
  0.000  0.000  1.000  0.000  0.000
  0.000  0.000  0.000  1.000  0.000
  0.000  0.000  0.000  0.000  1.000
    occupations:
  1.000  0.000  0.000  0.000  0.000
  0.000  1.000  0.000  0.000  0.000
  0.000  0.000  1.000  0.000  0.000
  0.000  0.000  0.000  1.000  0.000
  0.000  0.000  0.000  0.000  1.000
   spin  2
    eigenvalues: 
  0.200  0.200  0.200  0.200  0.200
    eigenvectors:
  1.000  0.000  0.000  0.000  0.000
  0.000  1.000  0.000  0.000  0.000
  0.000  0.000  1.000  0.000  0.000
  0.000  0.000  0.000  1.000  0.000
  0.000  0.000  0.000  0.000  1.000
    occupations:
  0.200  0.000  0.000  0.000  0.000
  0.000  0.200  0.000  0.000  0.000
  0.000  0.000  0.200  0.000  0.000
  0.000  0.000  0.000  0.200  0.000
  0.000  0.000  0.000  0.000  0.200
atomic mag. moment =     4.000000
atom   51   Tr[ns(na)] (up, down, total) =   1.00000  5.00000  6.00000
   spin  1
    eigenvalues: 
  0.200  0.200  0.200  0.200  0.200
    eigenvectors:
  1.000  0.000  0.000  0.000  0.000
  0.000  1.000  0.000  0.000  0.000
  0.000  0.000  1.000  0.000  0.000
  0.000  0.000  0.000  1.000  0.000
  0.000  0.000  0.000  0.000  1.000
    occupations:
  0.200  0.000  0.000  0.000  0.000
  0.000  0.200  0.000  0.000  0.000
  0.000  0.000  0.200  0.000  0.000
  0.000  0.000  0.000  0.200  0.000
  0.000  0.000  0.000  0.000  0.200
   spin  2
    eigenvalues: 
  1.000  1.000  1.000  1.000  1.000
    eigenvectors:
  1.000  0.000  0.000  0.000  0.000
  0.000  1.000  0.000  0.000  0.000
  0.000  0.000  1.000  0.000  0.000
  0.000  0.000  0.000  1.000  0.000
  0.000  0.000  0.000  0.000  1.000
    occupations:
  1.000  0.000  0.000  0.000  0.000
  0.000  1.000  0.000  0.000  0.000
  0.000  0.000  1.000  0.000  0.000
  0.000  0.000  0.000  1.000  0.000
  0.000  0.000  0.000  0.000  1.000
atomic mag. moment =    -4.000000
atom   52   Tr[ns(na)] (up, down, total) =   5.00000  1.00000  6.00000
   spin  1
    eigenvalues: 
  1.000  1.000  1.000  1.000  1.000
    eigenvectors:
  1.000  0.000  0.000  0.000  0.000
  0.000  1.000  0.000  0.000  0.000
  0.000  0.000  1.000  0.000  0.000
  0.000  0.000  0.000  1.000  0.000
  0.000  0.000  0.000  0.000  1.000
    occupations:
  1.000  0.000  0.000  0.000  0.000
  0.000  1.000  0.000  0.000  0.000
  0.000  0.000  1.000  0.000  0.000
  0.000  0.000  0.000  1.000  0.000
  0.000  0.000  0.000  0.000  1.000
   spin  2
    eigenvalues: 
  0.200  0.200  0.200  0.200  0.200
    eigenvectors:
  1.000  0.000  0.000  0.000  0.000
  0.000  1.000  0.000  0.000  0.000
  0.000  0.000  1.000  0.000  0.000
  0.000  0.000  0.000  1.000  0.000
  0.000  0.000  0.000  0.000  1.000
    occupations:
  0.200  0.000  0.000  0.000  0.000
  0.000  0.200  0.000  0.000  0.000
  0.000  0.000  0.200  0.000  0.000
  0.000  0.000  0.000  0.200  0.000
  0.000  0.000  0.000  0.000  0.200
atomic mag. moment =     4.000000
atom   53   Tr[ns(na)] (up, down, total) =   1.00000  5.00000  6.00000
   spin  1
    eigenvalues: 
  0.200  0.200  0.200  0.200  0.200
    eigenvectors:
  1.000  0.000  0.000  0.000  0.000
  0.000  1.000  0.000  0.000  0.000
  0.000  0.000  1.000  0.000  0.000
  0.000  0.000  0.000  1.000  0.000
  0.000  0.000  0.000  0.000  1.000
    occupations:
  0.200  0.000  0.000  0.000  0.000
  0.000  0.200  0.000  0.000  0.000
  0.000  0.000  0.200  0.000  0.000
  0.000  0.000  0.000  0.200  0.000
  0.000  0.000  0.000  0.000  0.200
   spin  2
    eigenvalues: 
  1.000  1.000  1.000  1.000  1.000
    eigenvectors:
  1.000  0.000  0.000  0.000  0.000
  0.000  1.000  0.000  0.000  0.000
  0.000  0.000  1.000  0.000  0.000
  0.000  0.000  0.000  1.000  0.000
  0.000  0.000  0.000  0.000  1.000
    occupations:
  1.000  0.000  0.000  0.000  0.000
  0.000  1.000  0.000  0.000  0.000
  0.000  0.000  1.000  0.000  0.000
  0.000  0.000  0.000  1.000  0.000
  0.000  0.000  0.000  0.000  1.000
atomic mag. moment =    -4.000000
atom   54   Tr[ns(na)] (up, down, total) =   5.00000  1.00000  6.00000
   spin  1
    eigenvalues: 
  1.000  1.000  1.000  1.000  1.000
    eigenvectors:
  1.000  0.000  0.000  0.000  0.000
  0.000  1.000  0.000  0.000  0.000
  0.000  0.000  1.000  0.000  0.000
  0.000  0.000  0.000  1.000  0.000
  0.000  0.000  0.000  0.000  1.000
    occupations:
  1.000  0.000  0.000  0.000  0.000
  0.000  1.000  0.000  0.000  0.000
  0.000  0.000  1.000  0.000  0.000
  0.000  0.000  0.000  1.000  0.000
  0.000  0.000  0.000  0.000  1.000
   spin  2
    eigenvalues: 
  0.200  0.200  0.200  0.200  0.200
    eigenvectors:
  1.000  0.000  0.000  0.000  0.000
  0.000  1.000  0.000  0.000  0.000
  0.000  0.000  1.000  0.000  0.000
  0.000  0.000  0.000  1.000  0.000
  0.000  0.000  0.000  0.000  1.000
    occupations:
  0.200  0.000  0.000  0.000  0.000
  0.000  0.200  0.000  0.000  0.000
  0.000  0.000  0.200  0.000  0.000
  0.000  0.000  0.000  0.200  0.000
  0.000  0.000  0.000  0.000  0.200
atomic mag. moment =     4.000000
atom   55   Tr[ns(na)] (up, down, total) =   1.00000  5.00000  6.00000
   spin  1
    eigenvalues: 
  0.200  0.200  0.200  0.200  0.200
    eigenvectors:
  1.000  0.000  0.000  0.000  0.000
  0.000  1.000  0.000  0.000  0.000
  0.000  0.000  1.000  0.000  0.000
  0.000  0.000  0.000  1.000  0.000
  0.000  0.000  0.000  0.000  1.000
    occupations:
  0.200  0.000  0.000  0.000  0.000
  0.000  0.200  0.000  0.000  0.000
  0.000  0.000  0.200  0.000  0.000
  0.000  0.000  0.000  0.200  0.000
  0.000  0.000  0.000  0.000  0.200
   spin  2
    eigenvalues: 
  1.000  1.000  1.000  1.000  1.000
    eigenvectors:
  1.000  0.000  0.000  0.000  0.000
  0.000  1.000  0.000  0.000  0.000
  0.000  0.000  1.000  0.000  0.000
  0.000  0.000  0.000  1.000  0.000
  0.000  0.000  0.000  0.000  1.000
    occupations:
  1.000  0.000  0.000  0.000  0.000
  0.000  1.000  0.000  0.000  0.000
  0.000  0.000  1.000  0.000  0.000
  0.000  0.000  0.000  1.000  0.000
  0.000  0.000  0.000  0.000  1.000
atomic mag. moment =    -4.000000
atom   56   Tr[ns(na)] (up, down, total) =   5.00000  1.00000  6.00000
   spin  1
    eigenvalues: 
  1.000  1.000  1.000  1.000  1.000
    eigenvectors:
  1.000  0.000  0.000  0.000  0.000
  0.000  1.000  0.000  0.000  0.000
  0.000  0.000  1.000  0.000  0.000
  0.000  0.000  0.000  1.000  0.000
  0.000  0.000  0.000  0.000  1.000
    occupations:
  1.000  0.000  0.000  0.000  0.000
  0.000  1.000  0.000  0.000  0.000
  0.000  0.000  1.000  0.000  0.000
  0.000  0.000  0.000  1.000  0.000
  0.000  0.000  0.000  0.000  1.000
   spin  2
    eigenvalues: 
  0.200  0.200  0.200  0.200  0.200
    eigenvectors:
  1.000  0.000  0.000  0.000  0.000
  0.000  1.000  0.000  0.000  0.000
  0.000  0.000  1.000  0.000  0.000
  0.000  0.000  0.000  1.000  0.000
  0.000  0.000  0.000  0.000  1.000
    occupations:
  0.200  0.000  0.000  0.000  0.000
  0.000  0.200  0.000  0.000  0.000
  0.000  0.000  0.200  0.000  0.000
  0.000  0.000  0.000  0.200  0.000
  0.000  0.000  0.000  0.000  0.200
atomic mag. moment =     4.000000
atom   57   Tr[ns(na)] (up, down, total) =   1.00000  5.00000  6.00000
   spin  1
    eigenvalues: 
  0.200  0.200  0.200  0.200  0.200
    eigenvectors:
  1.000  0.000  0.000  0.000  0.000
  0.000  1.000  0.000  0.000  0.000
  0.000  0.000  1.000  0.000  0.000
  0.000  0.000  0.000  1.000  0.000
  0.000  0.000  0.000  0.000  1.000
    occupations:
  0.200  0.000  0.000  0.000  0.000
  0.000  0.200  0.000  0.000  0.000
  0.000  0.000  0.200  0.000  0.000
  0.000  0.000  0.000  0.200  0.000
  0.000  0.000  0.000  0.000  0.200
   spin  2
    eigenvalues: 
  1.000  1.000  1.000  1.000  1.000
    eigenvectors:
  1.000  0.000  0.000  0.000  0.000
  0.000  1.000  0.000  0.000  0.000
  0.000  0.000  1.000  0.000  0.000
  0.000  0.000  0.000  1.000  0.000
  0.000  0.000  0.000  0.000  1.000
    occupations:
  1.000  0.000  0.000  0.000  0.000
  0.000  1.000  0.000  0.000  0.000
  0.000  0.000  1.000  0.000  0.000
  0.000  0.000  0.000  1.000  0.000
  0.000  0.000  0.000  0.000  1.000
atomic mag. moment =    -4.000000
atom   58   Tr[ns(na)] (up, down, total) =   5.00000  1.00000  6.00000
   spin  1
    eigenvalues: 
  1.000  1.000  1.000  1.000  1.000
    eigenvectors:
  1.000  0.000  0.000  0.000  0.000
  0.000  1.000  0.000  0.000  0.000
  0.000  0.000  1.000  0.000  0.000
  0.000  0.000  0.000  1.000  0.000
  0.000  0.000  0.000  0.000  1.000
    occupations:
  1.000  0.000  0.000  0.000  0.000
  0.000  1.000  0.000  0.000  0.000
  0.000  0.000  1.000  0.000  0.000
  0.000  0.000  0.000  1.000  0.000
  0.000  0.000  0.000  0.000  1.000
   spin  2
    eigenvalues: 
  0.200  0.200  0.200  0.200  0.200
    eigenvectors:
  1.000  0.000  0.000  0.000  0.000
  0.000  1.000  0.000  0.000  0.000
  0.000  0.000  1.000  0.000  0.000
  0.000  0.000  0.000  1.000  0.000
  0.000  0.000  0.000  0.000  1.000
    occupations:
  0.200  0.000  0.000  0.000  0.000
  0.000  0.200  0.000  0.000  0.000
  0.000  0.000  0.200  0.000  0.000
  0.000  0.000  0.000  0.200  0.000
  0.000  0.000  0.000  0.000  0.200
atomic mag. moment =     4.000000
atom   59   Tr[ns(na)] (up, down, total) =   1.00000  5.00000  6.00000
   spin  1
    eigenvalues: 
  0.200  0.200  0.200  0.200  0.200
    eigenvectors:
  1.000  0.000  0.000  0.000  0.000
  0.000  1.000  0.000  0.000  0.000
  0.000  0.000  1.000  0.000  0.000
  0.000  0.000  0.000  1.000  0.000
  0.000  0.000  0.000  0.000  1.000
    occupations:
  0.200  0.000  0.000  0.000  0.000
  0.000  0.200  0.000  0.000  0.000
  0.000  0.000  0.200  0.000  0.000
  0.000  0.000  0.000  0.200  0.000
  0.000  0.000  0.000  0.000  0.200
   spin  2
    eigenvalues: 
  1.000  1.000  1.000  1.000  1.000
    eigenvectors:
  1.000  0.000  0.000  0.000  0.000
  0.000  1.000  0.000  0.000  0.000
  0.000  0.000  1.000  0.000  0.000
  0.000  0.000  0.000  1.000  0.000
  0.000  0.000  0.000  0.000  1.000
    occupations:
  1.000  0.000  0.000  0.000  0.000
  0.000  1.000  0.000  0.000  0.000
  0.000  0.000  1.000  0.000  0.000
  0.000  0.000  0.000  1.000  0.000
  0.000  0.000  0.000  0.000  1.000
atomic mag. moment =    -4.000000
atom   60   Tr[ns(na)] (up, down, total) =   5.00000  1.00000  6.00000
   spin  1
    eigenvalues: 
  1.000  1.000  1.000  1.000  1.000
    eigenvectors:
  1.000  0.000  0.000  0.000  0.000
  0.000  1.000  0.000  0.000  0.000
  0.000  0.000  1.000  0.000  0.000
  0.000  0.000  0.000  1.000  0.000
  0.000  0.000  0.000  0.000  1.000
    occupations:
  1.000  0.000  0.000  0.000  0.000
  0.000  1.000  0.000  0.000  0.000
  0.000  0.000  1.000  0.000  0.000
  0.000  0.000  0.000  1.000  0.000
  0.000  0.000  0.000  0.000  1.000
   spin  2
    eigenvalues: 
  0.200  0.200  0.200  0.200  0.200
    eigenvectors:
  1.000  0.000  0.000  0.000  0.000
  0.000  1.000  0.000  0.000  0.000
  0.000  0.000  1.000  0.000  0.000
  0.000  0.000  0.000  1.000  0.000
  0.000  0.000  0.000  0.000  1.000
    occupations:
  0.200  0.000  0.000  0.000  0.000
  0.000  0.200  0.000  0.000  0.000
  0.000  0.000  0.200  0.000  0.000
  0.000  0.000  0.000  0.200  0.000
  0.000  0.000  0.000  0.000  0.200
atomic mag. moment =     4.000000
atom   79   Tr[ns(na)] (up, down, total) =   1.00000  5.00000  6.00000
   spin  1
    eigenvalues: 
  0.200  0.200  0.200  0.200  0.200
    eigenvectors:
  1.000  0.000  0.000  0.000  0.000
  0.000  1.000  0.000  0.000  0.000
  0.000  0.000  1.000  0.000  0.000
  0.000  0.000  0.000  1.000  0.000
  0.000  0.000  0.000  0.000  1.000
    occupations:
  0.200  0.000  0.000  0.000  0.000
  0.000  0.200  0.000  0.000  0.000
  0.000  0.000  0.200  0.000  0.000
  0.000  0.000  0.000  0.200  0.000
  0.000  0.000  0.000  0.000  0.200
   spin  2
    eigenvalues: 
  1.000  1.000  1.000  1.000  1.000
    eigenvectors:
  1.000  0.000  0.000  0.000  0.000
  0.000  1.000  0.000  0.000  0.000
  0.000  0.000  1.000  0.000  0.000
  0.000  0.000  0.000  1.000  0.000
  0.000  0.000  0.000  0.000  1.000
    occupations:
  1.000  0.000  0.000  0.000  0.000
  0.000  1.000  0.000  0.000  0.000
  0.000  0.000  1.000  0.000  0.000
  0.000  0.000  0.000  1.000  0.000
  0.000  0.000  0.000  0.000  1.000
atomic mag. moment =    -4.000000
atom   80   Tr[ns(na)] (up, down, total) =   5.00000  1.00000  6.00000
   spin  1
    eigenvalues: 
  1.000  1.000  1.000  1.000  1.000
    eigenvectors:
  1.000  0.000  0.000  0.000  0.000
  0.000  1.000  0.000  0.000  0.000
  0.000  0.000  1.000  0.000  0.000
  0.000  0.000  0.000  1.000  0.000
  0.000  0.000  0.000  0.000  1.000
    occupations:
  1.000  0.000  0.000  0.000  0.000
  0.000  1.000  0.000  0.000  0.000
  0.000  0.000  1.000  0.000  0.000
  0.000  0.000  0.000  1.000  0.000
  0.000  0.000  0.000  0.000  1.000
   spin  2
    eigenvalues: 
  0.200  0.200  0.200  0.200  0.200
    eigenvectors:
  1.000  0.000  0.000  0.000  0.000
  0.000  1.000  0.000  0.000  0.000
  0.000  0.000  1.000  0.000  0.000
  0.000  0.000  0.000  1.000  0.000
  0.000  0.000  0.000  0.000  1.000
    occupations:
  0.200  0.000  0.000  0.000  0.000
  0.000  0.200  0.000  0.000  0.000
  0.000  0.000  0.200  0.000  0.000
  0.000  0.000  0.000  0.200  0.000
  0.000  0.000  0.000  0.000  0.200
atomic mag. moment =     4.000000
atom   81   Tr[ns(na)] (up, down, total) =   1.00000  5.00000  6.00000
   spin  1
    eigenvalues: 
  0.200  0.200  0.200  0.200  0.200
    eigenvectors:
  1.000  0.000  0.000  0.000  0.000
  0.000  1.000  0.000  0.000  0.000
  0.000  0.000  1.000  0.000  0.000
  0.000  0.000  0.000  1.000  0.000
  0.000  0.000  0.000  0.000  1.000
    occupations:
  0.200  0.000  0.000  0.000  0.000
  0.000  0.200  0.000  0.000  0.000
  0.000  0.000  0.200  0.000  0.000
  0.000  0.000  0.000  0.200  0.000
  0.000  0.000  0.000  0.000  0.200
   spin  2
    eigenvalues: 
  1.000  1.000  1.000  1.000  1.000
    eigenvectors:
  1.000  0.000  0.000  0.000  0.000
  0.000  1.000  0.000  0.000  0.000
  0.000  0.000  1.000  0.000  0.000
  0.000  0.000  0.000  1.000  0.000
  0.000  0.000  0.000  0.000  1.000
    occupations:
  1.000  0.000  0.000  0.000  0.000
  0.000  1.000  0.000  0.000  0.000
  0.000  0.000  1.000  0.000  0.000
  0.000  0.000  0.000  1.000  0.000
  0.000  0.000  0.000  0.000  1.000
atomic mag. moment =    -4.000000
atom   82   Tr[ns(na)] (up, down, total) =   5.00000  1.00000  6.00000
   spin  1
    eigenvalues: 
  1.000  1.000  1.000  1.000  1.000
    eigenvectors:
  1.000  0.000  0.000  0.000  0.000
  0.000  1.000  0.000  0.000  0.000
  0.000  0.000  1.000  0.000  0.000
  0.000  0.000  0.000  1.000  0.000
  0.000  0.000  0.000  0.000  1.000
    occupations:
  1.000  0.000  0.000  0.000  0.000
  0.000  1.000  0.000  0.000  0.000
  0.000  0.000  1.000  0.000  0.000
  0.000  0.000  0.000  1.000  0.000
  0.000  0.000  0.000  0.000  1.000
   spin  2
    eigenvalues: 
  0.200  0.200  0.200  0.200  0.200
    eigenvectors:
  1.000  0.000  0.000  0.000  0.000
  0.000  1.000  0.000  0.000  0.000
  0.000  0.000  1.000  0.000  0.000
  0.000  0.000  0.000  1.000  0.000
  0.000  0.000  0.000  0.000  1.000
    occupations:
  0.200  0.000  0.000  0.000  0.000
  0.000  0.200  0.000  0.000  0.000
  0.000  0.000  0.200  0.000  0.000
  0.000  0.000  0.000  0.200  0.000
  0.000  0.000  0.000  0.000  0.200
atomic mag. moment =     4.000000
atom   83   Tr[ns(na)] (up, down, total) =   1.00000  5.00000  6.00000
   spin  1
    eigenvalues: 
  0.200  0.200  0.200  0.200  0.200
    eigenvectors:
  1.000  0.000  0.000  0.000  0.000
  0.000  1.000  0.000  0.000  0.000
  0.000  0.000  1.000  0.000  0.000
  0.000  0.000  0.000  1.000  0.000
  0.000  0.000  0.000  0.000  1.000
    occupations:
  0.200  0.000  0.000  0.000  0.000
  0.000  0.200  0.000  0.000  0.000
  0.000  0.000  0.200  0.000  0.000
  0.000  0.000  0.000  0.200  0.000
  0.000  0.000  0.000  0.000  0.200
   spin  2
    eigenvalues: 
  1.000  1.000  1.000  1.000  1.000
    eigenvectors:
  1.000  0.000  0.000  0.000  0.000
  0.000  1.000  0.000  0.000  0.000
  0.000  0.000  1.000  0.000  0.000
  0.000  0.000  0.000  1.000  0.000
  0.000  0.000  0.000  0.000  1.000
    occupations:
  1.000  0.000  0.000  0.000  0.000
  0.000  1.000  0.000  0.000  0.000
  0.000  0.000  1.000  0.000  0.000
  0.000  0.000  0.000  1.000  0.000
  0.000  0.000  0.000  0.000  1.000
atomic mag. moment =    -4.000000
atom   84   Tr[ns(na)] (up, down, total) =   5.00000  1.00000  6.00000
   spin  1
    eigenvalues: 
  1.000  1.000  1.000  1.000  1.000
    eigenvectors:
  1.000  0.000  0.000  0.000  0.000
  0.000  1.000  0.000  0.000  0.000
  0.000  0.000  1.000  0.000  0.000
  0.000  0.000  0.000  1.000  0.000
  0.000  0.000  0.000  0.000  1.000
    occupations:
  1.000  0.000  0.000  0.000  0.000
  0.000  1.000  0.000  0.000  0.000
  0.000  0.000  1.000  0.000  0.000
  0.000  0.000  0.000  1.000  0.000
  0.000  0.000  0.000  0.000  1.000
   spin  2
    eigenvalues: 
  0.200  0.200  0.200  0.200  0.200
    eigenvectors:
  1.000  0.000  0.000  0.000  0.000
  0.000  1.000  0.000  0.000  0.000
  0.000  0.000  1.000  0.000  0.000
  0.000  0.000  0.000  1.000  0.000
  0.000  0.000  0.000  0.000  1.000
    occupations:
  0.200  0.000  0.000  0.000  0.000
  0.000  0.200  0.000  0.000  0.000
  0.000  0.000  0.200  0.000  0.000
  0.000  0.000  0.000  0.200  0.000
  0.000  0.000  0.000  0.000  0.200
atomic mag. moment =     4.000000
atom   85   Tr[ns(na)] (up, down, total) =   1.00000  5.00000  6.00000
   spin  1
    eigenvalues: 
  0.200  0.200  0.200  0.200  0.200
    eigenvectors:
  1.000  0.000  0.000  0.000  0.000
  0.000  1.000  0.000  0.000  0.000
  0.000  0.000  1.000  0.000  0.000
  0.000  0.000  0.000  1.000  0.000
  0.000  0.000  0.000  0.000  1.000
    occupations:
  0.200  0.000  0.000  0.000  0.000
  0.000  0.200  0.000  0.000  0.000
  0.000  0.000  0.200  0.000  0.000
  0.000  0.000  0.000  0.200  0.000
  0.000  0.000  0.000  0.000  0.200
   spin  2
    eigenvalues: 
  1.000  1.000  1.000  1.000  1.000
    eigenvectors:
  1.000  0.000  0.000  0.000  0.000
  0.000  1.000  0.000  0.000  0.000
  0.000  0.000  1.000  0.000  0.000
  0.000  0.000  0.000  1.000  0.000
  0.000  0.000  0.000  0.000  1.000
    occupations:
  1.000  0.000  0.000  0.000  0.000
  0.000  1.000  0.000  0.000  0.000
  0.000  0.000  1.000  0.000  0.000
  0.000  0.000  0.000  1.000  0.000
  0.000  0.000  0.000  0.000  1.000
atomic mag. moment =    -4.000000
atom   86   Tr[ns(na)] (up, down, total) =   5.00000  1.00000  6.00000
   spin  1
    eigenvalues: 
  1.000  1.000  1.000  1.000  1.000
    eigenvectors:
  1.000  0.000  0.000  0.000  0.000
  0.000  1.000  0.000  0.000  0.000
  0.000  0.000  1.000  0.000  0.000
  0.000  0.000  0.000  1.000  0.000
  0.000  0.000  0.000  0.000  1.000
    occupations:
  1.000  0.000  0.000  0.000  0.000
  0.000  1.000  0.000  0.000  0.000
  0.000  0.000  1.000  0.000  0.000
  0.000  0.000  0.000  1.000  0.000
  0.000  0.000  0.000  0.000  1.000
   spin  2
    eigenvalues: 
  0.200  0.200  0.200  0.200  0.200
    eigenvectors:
  1.000  0.000  0.000  0.000  0.000
  0.000  1.000  0.000  0.000  0.000
  0.000  0.000  1.000  0.000  0.000
  0.000  0.000  0.000  1.000  0.000
  0.000  0.000  0.000  0.000  1.000
    occupations:
  0.200  0.000  0.000  0.000  0.000
  0.000  0.200  0.000  0.000  0.000
  0.000  0.000  0.200  0.000  0.000
  0.000  0.000  0.000  0.200  0.000
  0.000  0.000  0.000  0.000  0.200
atomic mag. moment =     4.000000
atom   87   Tr[ns(na)] (up, down, total) =   1.00000  5.00000  6.00000
   spin  1
    eigenvalues: 
  0.200  0.200  0.200  0.200  0.200
    eigenvectors:
  1.000  0.000  0.000  0.000  0.000
  0.000  1.000  0.000  0.000  0.000
  0.000  0.000  1.000  0.000  0.000
  0.000  0.000  0.000  1.000  0.000
  0.000  0.000  0.000  0.000  1.000
    occupations:
  0.200  0.000  0.000  0.000  0.000
  0.000  0.200  0.000  0.000  0.000
  0.000  0.000  0.200  0.000  0.000
  0.000  0.000  0.000  0.200  0.000
  0.000  0.000  0.000  0.000  0.200
   spin  2
    eigenvalues: 
  1.000  1.000  1.000  1.000  1.000
    eigenvectors:
  1.000  0.000  0.000  0.000  0.000
  0.000  1.000  0.000  0.000  0.000
  0.000  0.000  1.000  0.000  0.000
  0.000  0.000  0.000  1.000  0.000
  0.000  0.000  0.000  0.000  1.000
    occupations:
  1.000  0.000  0.000  0.000  0.000
  0.000  1.000  0.000  0.000  0.000
  0.000  0.000  1.000  0.000  0.000
  0.000  0.000  0.000  1.000  0.000
  0.000  0.000  0.000  0.000  1.000
atomic mag. moment =    -4.000000
atom   88   Tr[ns(na)] (up, down, total) =   5.00000  1.00000  6.00000
   spin  1
    eigenvalues: 
  1.000  1.000  1.000  1.000  1.000
    eigenvectors:
  1.000  0.000  0.000  0.000  0.000
  0.000  1.000  0.000  0.000  0.000
  0.000  0.000  1.000  0.000  0.000
  0.000  0.000  0.000  1.000  0.000
  0.000  0.000  0.000  0.000  1.000
    occupations:
  1.000  0.000  0.000  0.000  0.000
  0.000  1.000  0.000  0.000  0.000
  0.000  0.000  1.000  0.000  0.000
  0.000  0.000  0.000  1.000  0.000
  0.000  0.000  0.000  0.000  1.000
   spin  2
    eigenvalues: 
  0.200  0.200  0.200  0.200  0.200
    eigenvectors:
  1.000  0.000  0.000  0.000  0.000
  0.000  1.000  0.000  0.000  0.000
  0.000  0.000  1.000  0.000  0.000
  0.000  0.000  0.000  1.000  0.000
  0.000  0.000  0.000  0.000  1.000
    occupations:
  0.200  0.000  0.000  0.000  0.000
  0.000  0.200  0.000  0.000  0.000
  0.000  0.000  0.200  0.000  0.000
  0.000  0.000  0.000  0.200  0.000
  0.000  0.000  0.000  0.000  0.200
atomic mag. moment =     4.000000
atom   89   Tr[ns(na)] (up, down, total) =   1.00000  5.00000  6.00000
   spin  1
    eigenvalues: 
  0.200  0.200  0.200  0.200  0.200
    eigenvectors:
  1.000  0.000  0.000  0.000  0.000
  0.000  1.000  0.000  0.000  0.000
  0.000  0.000  1.000  0.000  0.000
  0.000  0.000  0.000  1.000  0.000
  0.000  0.000  0.000  0.000  1.000
    occupations:
  0.200  0.000  0.000  0.000  0.000
  0.000  0.200  0.000  0.000  0.000
  0.000  0.000  0.200  0.000  0.000
  0.000  0.000  0.000  0.200  0.000
  0.000  0.000  0.000  0.000  0.200
   spin  2
    eigenvalues: 
  1.000  1.000  1.000  1.000  1.000
    eigenvectors:
  1.000  0.000  0.000  0.000  0.000
  0.000  1.000  0.000  0.000  0.000
  0.000  0.000  1.000  0.000  0.000
  0.000  0.000  0.000  1.000  0.000
  0.000  0.000  0.000  0.000  1.000
    occupations:
  1.000  0.000  0.000  0.000  0.000
  0.000  1.000  0.000  0.000  0.000
  0.000  0.000  1.000  0.000  0.000
  0.000  0.000  0.000  1.000  0.000
  0.000  0.000  0.000  0.000  1.000
atomic mag. moment =    -4.000000
atom   90   Tr[ns(na)] (up, down, total) =   5.00000  1.00000  6.00000
   spin  1
    eigenvalues: 
  1.000  1.000  1.000  1.000  1.000
    eigenvectors:
  1.000  0.000  0.000  0.000  0.000
  0.000  1.000  0.000  0.000  0.000
  0.000  0.000  1.000  0.000  0.000
  0.000  0.000  0.000  1.000  0.000
  0.000  0.000  0.000  0.000  1.000
    occupations:
  1.000  0.000  0.000  0.000  0.000
  0.000  1.000  0.000  0.000  0.000
  0.000  0.000  1.000  0.000  0.000
  0.000  0.000  0.000  1.000  0.000
  0.000  0.000  0.000  0.000  1.000
   spin  2
    eigenvalues: 
  0.200  0.200  0.200  0.200  0.200
    eigenvectors:
  1.000  0.000  0.000  0.000  0.000
  0.000  1.000  0.000  0.000  0.000
  0.000  0.000  1.000  0.000  0.000
  0.000  0.000  0.000  1.000  0.000
  0.000  0.000  0.000  0.000  1.000
    occupations:
  0.200  0.000  0.000  0.000  0.000
  0.000  0.200  0.000  0.000  0.000
  0.000  0.000  0.200  0.000  0.000
  0.000  0.000  0.000  0.200  0.000
  0.000  0.000  0.000  0.000  0.200
atomic mag. moment =     4.000000
atom  109   Tr[ns(na)] (up, down, total) =   1.00000  5.00000  6.00000
   spin  1
    eigenvalues: 
  0.200  0.200  0.200  0.200  0.200
    eigenvectors:
  1.000  0.000  0.000  0.000  0.000
  0.000  1.000  0.000  0.000  0.000
  0.000  0.000  1.000  0.000  0.000
  0.000  0.000  0.000  1.000  0.000
  0.000  0.000  0.000  0.000  1.000
    occupations:
  0.200  0.000  0.000  0.000  0.000
  0.000  0.200  0.000  0.000  0.000
  0.000  0.000  0.200  0.000  0.000
  0.000  0.000  0.000  0.200  0.000
  0.000  0.000  0.000  0.000  0.200
   spin  2
    eigenvalues: 
  1.000  1.000  1.000  1.000  1.000
    eigenvectors:
  1.000  0.000  0.000  0.000  0.000
  0.000  1.000  0.000  0.000  0.000
  0.000  0.000  1.000  0.000  0.000
  0.000  0.000  0.000  1.000  0.000
  0.000  0.000  0.000  0.000  1.000
    occupations:
  1.000  0.000  0.000  0.000  0.000
  0.000  1.000  0.000  0.000  0.000
  0.000  0.000  1.000  0.000  0.000
  0.000  0.000  0.000  1.000  0.000
  0.000  0.000  0.000  0.000  1.000
atomic mag. moment =    -4.000000
atom  110   Tr[ns(na)] (up, down, total) =   5.00000  1.00000  6.00000
   spin  1
    eigenvalues: 
  1.000  1.000  1.000  1.000  1.000
    eigenvectors:
  1.000  0.000  0.000  0.000  0.000
  0.000  1.000  0.000  0.000  0.000
  0.000  0.000  1.000  0.000  0.000
  0.000  0.000  0.000  1.000  0.000
  0.000  0.000  0.000  0.000  1.000
    occupations:
  1.000  0.000  0.000  0.000  0.000
  0.000  1.000  0.000  0.000  0.000
  0.000  0.000  1.000  0.000  0.000
  0.000  0.000  0.000  1.000  0.000
  0.000  0.000  0.000  0.000  1.000
   spin  2
    eigenvalues: 
  0.200  0.200  0.200  0.200  0.200
    eigenvectors:
  1.000  0.000  0.000  0.000  0.000
  0.000  1.000  0.000  0.000  0.000
  0.000  0.000  1.000  0.000  0.000
  0.000  0.000  0.000  1.000  0.000
  0.000  0.000  0.000  0.000  1.000
    occupations:
  0.200  0.000  0.000  0.000  0.000
  0.000  0.200  0.000  0.000  0.000
  0.000  0.000  0.200  0.000  0.000
  0.000  0.000  0.000  0.200  0.000
  0.000  0.000  0.000  0.000  0.200
atomic mag. moment =     4.000000
atom  111   Tr[ns(na)] (up, down, total) =   1.00000  5.00000  6.00000
   spin  1
    eigenvalues: 
  0.200  0.200  0.200  0.200  0.200
    eigenvectors:
  1.000  0.000  0.000  0.000  0.000
  0.000  1.000  0.000  0.000  0.000
  0.000  0.000  1.000  0.000  0.000
  0.000  0.000  0.000  1.000  0.000
  0.000  0.000  0.000  0.000  1.000
    occupations:
  0.200  0.000  0.000  0.000  0.000
  0.000  0.200  0.000  0.000  0.000
  0.000  0.000  0.200  0.000  0.000
  0.000  0.000  0.000  0.200  0.000
  0.000  0.000  0.000  0.000  0.200
   spin  2
    eigenvalues: 
  1.000  1.000  1.000  1.000  1.000
    eigenvectors:
  1.000  0.000  0.000  0.000  0.000
  0.000  1.000  0.000  0.000  0.000
  0.000  0.000  1.000  0.000  0.000
  0.000  0.000  0.000  1.000  0.000
  0.000  0.000  0.000  0.000  1.000
    occupations:
  1.000  0.000  0.000  0.000  0.000
  0.000  1.000  0.000  0.000  0.000
  0.000  0.000  1.000  0.000  0.000
  0.000  0.000  0.000  1.000  0.000
  0.000  0.000  0.000  0.000  1.000
atomic mag. moment =    -4.000000
atom  112   Tr[ns(na)] (up, down, total) =   5.00000  1.00000  6.00000
   spin  1
    eigenvalues: 
  1.000  1.000  1.000  1.000  1.000
    eigenvectors:
  1.000  0.000  0.000  0.000  0.000
  0.000  1.000  0.000  0.000  0.000
  0.000  0.000  1.000  0.000  0.000
  0.000  0.000  0.000  1.000  0.000
  0.000  0.000  0.000  0.000  1.000
    occupations:
  1.000  0.000  0.000  0.000  0.000
  0.000  1.000  0.000  0.000  0.000
  0.000  0.000  1.000  0.000  0.000
  0.000  0.000  0.000  1.000  0.000
  0.000  0.000  0.000  0.000  1.000
   spin  2
    eigenvalues: 
  0.200  0.200  0.200  0.200  0.200
    eigenvectors:
  1.000  0.000  0.000  0.000  0.000
  0.000  1.000  0.000  0.000  0.000
  0.000  0.000  1.000  0.000  0.000
  0.000  0.000  0.000  1.000  0.000
  0.000  0.000  0.000  0.000  1.000
    occupations:
  0.200  0.000  0.000  0.000  0.000
  0.000  0.200  0.000  0.000  0.000
  0.000  0.000  0.200  0.000  0.000
  0.000  0.000  0.000  0.200  0.000
  0.000  0.000  0.000  0.000  0.200
atomic mag. moment =     4.000000
atom  114   Tr[ns(na)] (up, down, total) =   5.00000  1.00000  6.00000
   spin  1
    eigenvalues: 
  1.000  1.000  1.000  1.000  1.000
    eigenvectors:
  1.000  0.000  0.000  0.000  0.000
  0.000  1.000  0.000  0.000  0.000
  0.000  0.000  1.000  0.000  0.000
  0.000  0.000  0.000  1.000  0.000
  0.000  0.000  0.000  0.000  1.000
    occupations:
  1.000  0.000  0.000  0.000  0.000
  0.000  1.000  0.000  0.000  0.000
  0.000  0.000  1.000  0.000  0.000
  0.000  0.000  0.000  1.000  0.000
  0.000  0.000  0.000  0.000  1.000
   spin  2
    eigenvalues: 
  0.200  0.200  0.200  0.200  0.200
    eigenvectors:
  1.000  0.000  0.000  0.000  0.000
  0.000  1.000  0.000  0.000  0.000
  0.000  0.000  1.000  0.000  0.000
  0.000  0.000  0.000  1.000  0.000
  0.000  0.000  0.000  0.000  1.000
    occupations:
  0.200  0.000  0.000  0.000  0.000
  0.000  0.200  0.000  0.000  0.000
  0.000  0.000  0.200  0.000  0.000
  0.000  0.000  0.000  0.200  0.000
  0.000  0.000  0.000  0.000  0.200
atomic mag. moment =     4.000000
atom  115   Tr[ns(na)] (up, down, total) =   1.00000  5.00000  6.00000
   spin  1
    eigenvalues: 
  0.200  0.200  0.200  0.200  0.200
    eigenvectors:
  1.000  0.000  0.000  0.000  0.000
  0.000  1.000  0.000  0.000  0.000
  0.000  0.000  1.000  0.000  0.000
  0.000  0.000  0.000  1.000  0.000
  0.000  0.000  0.000  0.000  1.000
    occupations:
  0.200  0.000  0.000  0.000  0.000
  0.000  0.200  0.000  0.000  0.000
  0.000  0.000  0.200  0.000  0.000
  0.000  0.000  0.000  0.200  0.000
  0.000  0.000  0.000  0.000  0.200
   spin  2
    eigenvalues: 
  1.000  1.000  1.000  1.000  1.000
    eigenvectors:
  1.000  0.000  0.000  0.000  0.000
  0.000  1.000  0.000  0.000  0.000
  0.000  0.000  1.000  0.000  0.000
  0.000  0.000  0.000  1.000  0.000
  0.000  0.000  0.000  0.000  1.000
    occupations:
  1.000  0.000  0.000  0.000  0.000
  0.000  1.000  0.000  0.000  0.000
  0.000  0.000  1.000  0.000  0.000
  0.000  0.000  0.000  1.000  0.000
  0.000  0.000  0.000  0.000  1.000
atomic mag. moment =    -4.000000
atom  116   Tr[ns(na)] (up, down, total) =   5.00000  1.00000  6.00000
   spin  1
    eigenvalues: 
  1.000  1.000  1.000  1.000  1.000
    eigenvectors:
  1.000  0.000  0.000  0.000  0.000
  0.000  1.000  0.000  0.000  0.000
  0.000  0.000  1.000  0.000  0.000
  0.000  0.000  0.000  1.000  0.000
  0.000  0.000  0.000  0.000  1.000
    occupations:
  1.000  0.000  0.000  0.000  0.000
  0.000  1.000  0.000  0.000  0.000
  0.000  0.000  1.000  0.000  0.000
  0.000  0.000  0.000  1.000  0.000
  0.000  0.000  0.000  0.000  1.000
   spin  2
    eigenvalues: 
  0.200  0.200  0.200  0.200  0.200
    eigenvectors:
  1.000  0.000  0.000  0.000  0.000
  0.000  1.000  0.000  0.000  0.000
  0.000  0.000  1.000  0.000  0.000
  0.000  0.000  0.000  1.000  0.000
  0.000  0.000  0.000  0.000  1.000
    occupations:
  0.200  0.000  0.000  0.000  0.000
  0.000  0.200  0.000  0.000  0.000
  0.000  0.000  0.200  0.000  0.000
  0.000  0.000  0.000  0.200  0.000
  0.000  0.000  0.000  0.000  0.200
atomic mag. moment =     4.000000
atom  117   Tr[ns(na)] (up, down, total) =   1.00000  5.00000  6.00000
   spin  1
    eigenvalues: 
  0.200  0.200  0.200  0.200  0.200
    eigenvectors:
  1.000  0.000  0.000  0.000  0.000
  0.000  1.000  0.000  0.000  0.000
  0.000  0.000  1.000  0.000  0.000
  0.000  0.000  0.000  1.000  0.000
  0.000  0.000  0.000  0.000  1.000
    occupations:
  0.200  0.000  0.000  0.000  0.000
  0.000  0.200  0.000  0.000  0.000
  0.000  0.000  0.200  0.000  0.000
  0.000  0.000  0.000  0.200  0.000
  0.000  0.000  0.000  0.000  0.200
   spin  2
    eigenvalues: 
  1.000  1.000  1.000  1.000  1.000
    eigenvectors:
  1.000  0.000  0.000  0.000  0.000
  0.000  1.000  0.000  0.000  0.000
  0.000  0.000  1.000  0.000  0.000
  0.000  0.000  0.000  1.000  0.000
  0.000  0.000  0.000  0.000  1.000
    occupations:
  1.000  0.000  0.000  0.000  0.000
  0.000  1.000  0.000  0.000  0.000
  0.000  0.000  1.000  0.000  0.000
  0.000  0.000  0.000  1.000  0.000
  0.000  0.000  0.000  0.000  1.000
atomic mag. moment =    -4.000000
atom  118   Tr[ns(na)] (up, down, total) =   5.00000  1.00000  6.00000
   spin  1
    eigenvalues: 
  1.000  1.000  1.000  1.000  1.000
    eigenvectors:
  1.000  0.000  0.000  0.000  0.000
  0.000  1.000  0.000  0.000  0.000
  0.000  0.000  1.000  0.000  0.000
  0.000  0.000  0.000  1.000  0.000
  0.000  0.000  0.000  0.000  1.000
    occupations:
  1.000  0.000  0.000  0.000  0.000
  0.000  1.000  0.000  0.000  0.000
  0.000  0.000  1.000  0.000  0.000
  0.000  0.000  0.000  1.000  0.000
  0.000  0.000  0.000  0.000  1.000
   spin  2
    eigenvalues: 
  0.200  0.200  0.200  0.200  0.200
    eigenvectors:
  1.000  0.000  0.000  0.000  0.000
  0.000  1.000  0.000  0.000  0.000
  0.000  0.000  1.000  0.000  0.000
  0.000  0.000  0.000  1.000  0.000
  0.000  0.000  0.000  0.000  1.000
    occupations:
  0.200  0.000  0.000  0.000  0.000
  0.000  0.200  0.000  0.000  0.000
  0.000  0.000  0.200  0.000  0.000
  0.000  0.000  0.000  0.200  0.000
  0.000  0.000  0.000  0.000  0.200
atomic mag. moment =     4.000000
atom  119   Tr[ns(na)] (up, down, total) =   1.00000  5.00000  6.00000
   spin  1
    eigenvalues: 
  0.200  0.200  0.200  0.200  0.200
    eigenvectors:
  1.000  0.000  0.000  0.000  0.000
  0.000  1.000  0.000  0.000  0.000
  0.000  0.000  1.000  0.000  0.000
  0.000  0.000  0.000  1.000  0.000
  0.000  0.000  0.000  0.000  1.000
    occupations:
  0.200  0.000  0.000  0.000  0.000
  0.000  0.200  0.000  0.000  0.000
  0.000  0.000  0.200  0.000  0.000
  0.000  0.000  0.000  0.200  0.000
  0.000  0.000  0.000  0.000  0.200
   spin  2
    eigenvalues: 
  1.000  1.000  1.000  1.000  1.000
    eigenvectors:
  1.000  0.000  0.000  0.000  0.000
  0.000  1.000  0.000  0.000  0.000
  0.000  0.000  1.000  0.000  0.000
  0.000  0.000  0.000  1.000  0.000
  0.000  0.000  0.000  0.000  1.000
    occupations:
  1.000  0.000  0.000  0.000  0.000
  0.000  1.000  0.000  0.000  0.000
  0.000  0.000  1.000  0.000  0.000
  0.000  0.000  0.000  1.000  0.000
  0.000  0.000  0.000  0.000  1.000
atomic mag. moment =    -4.000000
N of occupied +U levels =  276.000000
 --- exit write_ns ---
 Atomic wfc used for LDA+U Projector are NOT orthogonalized
     Starting wfc are  904 randomized atomic wfcs

     total cpu time spent up to now is       39.6 secs

     per-process dynamical memory:   424.5 Mb

     Self-consistent Calculation

     iteration #  1     ecut=    40.00 Ry     beta=0.30
     Davidson diagonalization with overlap
     ethr =  1.00E-02,  avg # of iterations =  3.0
 --- enter write_ns ---
 LDA+U parameters:
U( 2)     =  4.30000000
alpha( 2) =  0.00000000
U( 3)     =  4.30000000
alpha( 3) =  0.00000000
atom   19   Tr[ns(na)] (up, down, total) =   0.32901  4.95958  5.28859
   spin  1
    eigenvalues: 
  0.038  0.038  0.039  0.106  0.107
    eigenvectors:
  0.001  0.014  0.985  0.000  0.000
  0.140  0.269  0.003  0.349  0.239
  0.268  0.141  0.004  0.243  0.344
  0.128  0.454  0.005  0.182  0.232
  0.463  0.122  0.003  0.227  0.185
    occupations:
  0.039 -0.000  0.000  0.000 -0.000
 -0.000  0.078  0.000  0.033  0.005
  0.000  0.000  0.078  0.005 -0.033
  0.000  0.033  0.005  0.067 -0.001
 -0.000  0.005 -0.033 -0.001  0.066
   spin  2
    eigenvalues: 
  0.990  0.990  0.990  0.994  0.995
    eigenvectors:
  0.998  0.000  0.002  0.000  0.000
  0.000  0.123  0.056  0.713  0.108
  0.000  0.052  0.126  0.106  0.717
  0.001  0.640  0.181  0.145  0.034
  0.001  0.185  0.636  0.037  0.142
    occupations:
  0.990 -0.000 -0.000  0.000  0.000
 -0.000  0.994  0.000  0.002  0.000
 -0.000  0.000  0.994  0.000 -0.002
  0.000  0.002  0.000  0.991  0.000
  0.000  0.000 -0.002  0.000  0.991
atomic mag. moment =    -4.630567
atom   20   Tr[ns(na)] (up, down, total) =   4.95979  0.32819  5.28799
   spin  1
    eigenvalues: 
  0.990  0.990  0.990  0.994  0.995
    eigenvectors:
  0.996  0.002  0.001  0.001  0.000
  0.000  0.000  0.189  0.799  0.011
  0.000  0.183  0.001  0.011  0.806
  0.001  0.010  0.801  0.183  0.005
  0.003  0.805  0.009  0.006  0.177
    occupations:
  0.990  0.000  0.000 -0.000  0.000
  0.000  0.994 -0.000 -0.002  0.000
  0.000 -0.000  0.994  0.000  0.002
 -0.000 -0.002  0.000  0.991 -0.000
  0.000  0.000  0.002 -0.000  0.991
   spin  2
    eigenvalues: 
  0.037  0.038  0.039  0.104  0.109
    eigenvectors:
  0.177  0.015  0.808  0.000  0.000
  0.162  0.247  0.012  0.498  0.081
  0.180  0.152  0.059  0.087  0.522
  0.162  0.406  0.012  0.387  0.033
  0.319  0.179  0.109  0.028  0.364
    occupations:
  0.039  0.001  0.001 -0.000 -0.000
  0.001  0.077  0.001 -0.033  0.004
  0.001  0.001  0.081  0.003  0.034
 -0.000 -0.033  0.003  0.066 -0.001
 -0.000  0.004  0.034 -0.001  0.066
atomic mag. moment =     4.631604
atom   21   Tr[ns(na)] (up, down, total) =   0.32677  4.95983  5.28660
   spin  1
    eigenvalues: 
  0.038  0.038  0.039  0.106  0.106
    eigenvectors:
  0.004  0.000  0.996  0.000  0.000
  0.159  0.251  0.001  0.547  0.042
  0.250  0.159  0.001  0.042  0.547
  0.312  0.276  0.001  0.344  0.067
  0.275  0.313  0.001  0.067  0.344
    occupations:
  0.039  0.000  0.000  0.000 -0.000
  0.000  0.078  0.000  0.033  0.005
  0.000  0.000  0.078  0.005 -0.033
  0.000  0.033  0.005  0.066 -0.000
 -0.000  0.005 -0.033 -0.000  0.066
   spin  2
    eigenvalues: 
  0.990  0.990  0.990  0.994  0.994
    eigenvectors:
  1.000  0.000  0.000  0.000  0.000
  0.000  0.180  0.000  0.505  0.314
  0.000  0.000  0.185  0.313  0.502
  0.000  0.803  0.016  0.093  0.087
  0.000  0.016  0.799  0.089  0.096
    occupations:
  0.990  0.000  0.000 -0.000 -0.000
  0.000  0.994  0.000  0.002  0.000
  0.000  0.000  0.994  0.000 -0.002
 -0.000  0.002  0.000  0.991 -0.000
 -0.000  0.000 -0.002 -0.000  0.991
atomic mag. moment =    -4.633061
atom   22   Tr[ns(na)] (up, down, total) =   4.95941  0.32680  5.28621
   spin  1
    eigenvalues: 
  0.990  0.990  0.990  0.994  0.994
    eigenvectors:
  1.000  0.000  0.000  0.000  0.000
  0.000  0.166  0.000  0.614  0.219
  0.000  0.001  0.172  0.219  0.609
  0.000  0.831  0.002  0.106  0.061
  0.000  0.002  0.826  0.060  0.112
    occupations:
  0.990  0.000 -0.000 -0.000  0.000
  0.000  0.994 -0.000 -0.001  0.000
 -0.000 -0.000  0.994  0.000  0.001
 -0.000 -0.001  0.000  0.991  0.000
  0.000  0.000  0.001  0.000  0.991
   spin  2
    eigenvalues: 
  0.038  0.038  0.039  0.105  0.106
    eigenvectors:
  0.002  0.001  0.997  0.000  0.000
  0.045  0.374  0.001  0.578  0.002
  0.375  0.046  0.001  0.002  0.576
  0.021  0.558  0.001  0.402  0.018
  0.557  0.021  0.001  0.018  0.404
    occupations:
  0.039  0.000 -0.000 -0.000 -0.000
  0.000  0.077 -0.000 -0.033  0.005
 -0.000 -0.000  0.077  0.005  0.033
 -0.000 -0.033  0.005  0.066  0.000
 -0.000  0.005  0.033  0.000  0.067
atomic mag. moment =     4.632617
atom   23   Tr[ns(na)] (up, down, total) =   0.32517  4.95981  5.28499
   spin  1
    eigenvalues: 
  0.036  0.037  0.039  0.105  0.108
    eigenvectors:
  0.053  0.196  0.750  0.000  0.000
  0.134  0.157  0.095  0.612  0.002
  0.247  0.130  0.005  0.004  0.614
  0.280  0.196  0.133  0.369  0.022
  0.286  0.320  0.017  0.015  0.362
    occupations:
  0.038 -0.000 -0.001  0.001  0.001
 -0.000  0.079 -0.001  0.033  0.005
 -0.001 -0.001  0.081  0.006 -0.034
  0.001  0.033  0.006  0.064 -0.001
  0.001  0.005 -0.034 -0.001  0.064
   spin  2
    eigenvalues: 
  0.990  0.990  0.990  0.994  0.995
    eigenvectors:
  0.743  0.250  0.007  0.000  0.000
  0.008  0.004  0.204  0.673  0.110
  0.044  0.126  0.009  0.114  0.706
  0.062  0.091  0.634  0.149  0.064
  0.143  0.529  0.145  0.063  0.119
    occupations:
  0.990 -0.000 -0.000  0.000 -0.000
 -0.000  0.994  0.000  0.002  0.000
 -0.000  0.000  0.994  0.000 -0.002
  0.000  0.002  0.000  0.991  0.000
 -0.000  0.000 -0.002  0.000  0.991
atomic mag. moment =    -4.634639
atom   24   Tr[ns(na)] (up, down, total) =   4.96012  0.32715  5.28728
   spin  1
    eigenvalues: 
  0.990  0.990  0.991  0.994  0.995
    eigenvectors:
  0.981  0.000  0.018  0.000  0.000
  0.002  0.097  0.085  0.547  0.269
  0.003  0.084  0.108  0.273  0.533
  0.003  0.532  0.284  0.135  0.047
  0.011  0.287  0.506  0.045  0.151
    occupations:
  0.990  0.000  0.000  0.000 -0.000
  0.000  0.994  0.000 -0.002  0.000
  0.000  0.000  0.994  0.000  0.002
  0.000 -0.002  0.000  0.991 -0.000
 -0.000  0.000  0.002 -0.000  0.991
   spin  2
    eigenvalues: 
  0.037  0.037  0.039  0.106  0.107
    eigenvectors:
  0.005  0.377  0.617  0.000  0.000
  0.343  0.023  0.033  0.395  0.207
  0.051  0.216  0.132  0.203  0.397
  0.571  0.011  0.021  0.206  0.191
  0.030  0.374  0.196  0.195  0.206
    occupations:
  0.039  0.000  0.001 -0.001  0.002
  0.000  0.079 -0.000 -0.034  0.004
  0.001 -0.000  0.079  0.005  0.033
 -0.001 -0.034  0.005  0.065 -0.000
  0.002  0.004  0.033 -0.000  0.066
atomic mag. moment =     4.632968
atom   25   Tr[ns(na)] (up, down, total) =   0.33065  4.95916  5.28980
   spin  1
    eigenvalues: 
  0.037  0.039  0.040  0.107  0.108
    eigenvectors:
  0.209  0.018  0.772  0.001  0.000
  0.124  0.220  0.078  0.189  0.389
  0.196  0.173  0.033  0.390  0.208
  0.241  0.241  0.094  0.205  0.219
  0.229  0.349  0.023  0.215  0.184
    occupations:
  0.039  0.001  0.000  0.002 -0.001
  0.001  0.078 -0.001  0.034  0.004
  0.000 -0.001  0.079  0.005 -0.033
  0.002  0.034  0.005  0.068  0.000
 -0.001  0.004 -0.033  0.000  0.066
   spin  2
    eigenvalues: 
  0.990  0.990  0.990  0.994  0.995
    eigenvectors:
  0.906  0.035  0.058  0.000  0.000
  0.006  0.173  0.003  0.120  0.697
  0.003  0.014  0.128  0.746  0.109
  0.059  0.684  0.081  0.028  0.149
  0.025  0.094  0.730  0.106  0.045
    occupations:
  0.990 -0.000 -0.000 -0.000  0.000
 -0.000  0.994 -0.000  0.002  0.000
 -0.000 -0.000  0.993 -0.000 -0.001
 -0.000  0.002 -0.000  0.991  0.000
  0.000  0.000 -0.001  0.000  0.991
atomic mag. moment =    -4.628511
atom   26   Tr[ns(na)] (up, down, total) =   4.95957  0.33034  5.28991
   spin  1
    eigenvalues: 
  0.990  0.990  0.991  0.994  0.995
    eigenvectors:
  0.889  0.102  0.009  0.000  0.000
  0.006  0.014  0.159  0.619  0.202
  0.012  0.127  0.023  0.215  0.623
  0.023  0.034  0.762  0.112  0.069
  0.071  0.722  0.047  0.054  0.106
    occupations:
  0.990  0.000  0.000  0.000 -0.000
  0.000  0.994 -0.000 -0.001  0.000
  0.000 -0.000  0.994  0.000  0.002
  0.000 -0.001  0.000  0.991  0.000
 -0.000  0.000  0.002  0.000  0.991
   spin  2
    eigenvalues: 
  0.037  0.038  0.040  0.106  0.109
    eigenvectors:
  0.041  0.347  0.612  0.000  0.000
  0.155  0.185  0.052  0.119  0.489
  0.228  0.067  0.108  0.482  0.115
  0.173  0.332  0.103  0.114  0.277
  0.404  0.069  0.124  0.285  0.118
    occupations:
  0.039  0.000 -0.000 -0.001 -0.001
  0.000  0.081  0.000 -0.034  0.005
 -0.000  0.000  0.079  0.003  0.034
 -0.001 -0.034  0.003  0.066 -0.000
 -0.001  0.005  0.034 -0.000  0.066
atomic mag. moment =     4.629223
atom   27   Tr[ns(na)] (up, down, total) =   0.32795  4.95972  5.28767
   spin  1
    eigenvalues: 
  0.038  0.038  0.039  0.106  0.107
    eigenvectors:
  0.000  0.014  0.986  0.000  0.000
  0.333  0.079  0.001  0.051  0.537
  0.080  0.330  0.005  0.535  0.051
  0.531  0.055  0.001  0.010  0.402
  0.056  0.523  0.007  0.404  0.010
    occupations:
  0.039  0.000  0.000  0.000 -0.000
  0.000  0.078  0.000  0.033  0.005
  0.000  0.000  0.078  0.005 -0.033
  0.000  0.033  0.005  0.066  0.000
 -0.000  0.005 -0.033  0.000  0.066
   spin  2
    eigenvalues: 
  0.990  0.990  0.990  0.994  0.994
    eigenvectors:
  0.998  0.000  0.001  0.000  0.000
  0.000  0.072  0.107  0.002  0.819
  0.000  0.104  0.070  0.823  0.002
  0.000  0.241  0.580  0.005  0.174
  0.001  0.583  0.242  0.170  0.005
    occupations:
  0.990  0.000  0.000 -0.000  0.000
  0.000  0.994 -0.000  0.002  0.000
  0.000 -0.000  0.994  0.000 -0.002
 -0.000  0.002  0.000  0.991 -0.000
  0.000  0.000 -0.002 -0.000  0.991
atomic mag. moment =    -4.631765
atom   28   Tr[ns(na)] (up, down, total) =   4.95993  0.32627  5.28621
   spin  1
    eigenvalues: 
  0.990  0.990  0.990  0.995  0.995
    eigenvectors:
  1.000  0.000  0.000  0.000  0.000
  0.000  0.068  0.124  0.310  0.499
  0.000  0.126  0.066  0.500  0.308
  0.000  0.362  0.446  0.054  0.138
  0.000  0.444  0.364  0.136  0.056
    occupations:
  0.990  0.000  0.000 -0.000  0.000
  0.000  0.994 -0.000 -0.002  0.000
  0.000 -0.000  0.994  0.000  0.002
 -0.000 -0.002  0.000  0.991  0.000
  0.000  0.000  0.002  0.000  0.991
   spin  2
    eigenvalues: 
  0.038  0.038  0.039  0.106  0.106
    eigenvectors:
  0.000  0.000  1.000  0.000  0.000
  0.028  0.378  0.000  0.273  0.320
  0.381  0.028  0.000  0.317  0.274
  0.009  0.585  0.000  0.131  0.275
  0.582  0.009  0.000  0.278  0.131
    occupations:
  0.039  0.000 -0.000 -0.000 -0.000
  0.000  0.078 -0.000 -0.033  0.005
 -0.000 -0.000  0.078  0.005  0.033
 -0.000 -0.033  0.005  0.066 -0.000
 -0.000  0.005  0.033 -0.000  0.066
atomic mag. moment =     4.633664
atom   29   Tr[ns(na)] (up, down, total) =   0.32577  4.96044  5.28621
   spin  1
    eigenvalues: 
  0.037  0.037  0.039  0.106  0.107
    eigenvectors:
  0.005  0.250  0.745  0.000  0.000
  0.285  0.089  0.019  0.025  0.582
  0.108  0.195  0.090  0.581  0.026
  0.354  0.209  0.045  0.002  0.390
  0.248  0.257  0.101  0.392  0.001
    occupations:
  0.038 -0.000 -0.001 -0.001  0.001
 -0.000  0.080  0.001  0.034  0.005
 -0.001  0.001  0.079  0.005 -0.033
 -0.001  0.034  0.005  0.065 -0.000
  0.001  0.005 -0.033 -0.000  0.064
   spin  2
    eigenvalues: 
  0.990  0.990  0.991  0.995  0.995
    eigenvectors:
  0.981  0.002  0.017  0.000  0.000
  0.000  0.185  0.026  0.650  0.140
  0.006  0.018  0.188  0.149  0.640
  0.000  0.657  0.130  0.151  0.062
  0.013  0.138  0.640  0.051  0.158
    occupations:
  0.990  0.000 -0.000  0.000 -0.000
  0.000  0.994  0.000  0.002  0.000
 -0.000  0.000  0.994  0.000 -0.002
  0.000  0.002  0.000  0.991 -0.000
 -0.000  0.000 -0.002 -0.000  0.991
atomic mag. moment =    -4.634670
atom   30   Tr[ns(na)] (up, down, total) =   4.95928  0.32611  5.28539
   spin  1
    eigenvalues: 
  0.990  0.990  0.991  0.994  0.994
    eigenvectors:
  0.772  0.167  0.061  0.000  0.000
  0.027  0.037  0.091  0.526  0.319
  0.008  0.121  0.057  0.316  0.498
  0.181  0.286  0.374  0.063  0.096
  0.012  0.390  0.416  0.095  0.087
    occupations:
  0.990  0.000  0.000  0.000 -0.000
  0.000  0.994 -0.000 -0.001  0.000
  0.000 -0.000  0.994  0.000  0.001
  0.000 -0.001  0.000  0.991 -0.000
 -0.000  0.000  0.001 -0.000  0.991
   spin  2
    eigenvalues: 
  0.037  0.038  0.039  0.105  0.106
    eigenvectors:
  0.071  0.378  0.552  0.000  0.000
  0.157  0.201  0.060  0.352  0.231
  0.227  0.053  0.134  0.228  0.357
  0.143  0.331  0.108  0.312  0.106
  0.402  0.037  0.147  0.108  0.306
    occupations:
  0.039  0.001  0.000 -0.001 -0.001
  0.001  0.077  0.000 -0.033  0.005
  0.000  0.000  0.078  0.004  0.033
 -0.001 -0.033  0.004  0.066  0.000
 -0.001  0.005  0.033  0.000  0.066
atomic mag. moment =     4.633170
atom   49   Tr[ns(na)] (up, down, total) =   0.32864  4.95960  5.28824
   spin  1
    eigenvalues: 
  0.038  0.038  0.039  0.106  0.107
    eigenvectors:
  0.021  0.013  0.966  0.000  0.000
  0.000  0.406  0.006  0.468  0.120
  0.403  0.000  0.009  0.122  0.466
  0.010  0.574  0.005  0.368  0.044
  0.566  0.007  0.014  0.043  0.370
    occupations:
  0.039  0.000 -0.000  0.000  0.000
  0.000  0.078 -0.000  0.033  0.005
 -0.000 -0.000  0.078  0.005 -0.034
  0.000  0.033  0.005  0.066  0.000
  0.000  0.005 -0.034  0.000  0.066
   spin  2
    eigenvalues: 
  0.990  0.990  0.990  0.994  0.995
    eigenvectors:
  0.999  0.001  0.000  0.000  0.000
  0.000  0.051  0.128  0.146  0.676
  0.000  0.123  0.055  0.680  0.142
  0.000  0.180  0.640  0.019  0.161
  0.001  0.645  0.177  0.155  0.021
    occupations:
  0.990 -0.000  0.000 -0.000 -0.000
 -0.000  0.994  0.000  0.002  0.000
  0.000  0.000  0.994  0.000 -0.002
 -0.000  0.002  0.000  0.991 -0.000
 -0.000  0.000 -0.002 -0.000  0.991
atomic mag. moment =    -4.630962
atom   50   Tr[ns(na)] (up, down, total) =   4.95962  0.32811  5.28773
   spin  1
    eigenvalues: 
  0.990  0.990  0.990  0.994  0.994
    eigenvectors:
  0.994  0.005  0.000  0.001  0.000
  0.000  0.161  0.016  0.574  0.249
  0.000  0.014  0.169  0.243  0.574
  0.006  0.715  0.102  0.137  0.040
  0.000  0.105  0.713  0.046  0.137
    occupations:
  0.990 -0.000  0.000  0.000  0.000
 -0.000  0.994  0.000 -0.002  0.000
  0.000  0.000  0.994  0.000  0.002
  0.000 -0.002  0.000  0.991  0.000
  0.000  0.000  0.002  0.000  0.991
   spin  2
    eigenvalues: 
  0.037  0.038  0.040  0.104  0.109
    eigenvectors:
  0.175  0.099  0.726  0.000  0.000
  0.327  0.000  0.072  0.000  0.601
  0.013  0.371  0.030  0.585  0.000
  0.484  0.004  0.111  0.008  0.394
  0.001  0.526  0.061  0.407  0.005
    occupations:
  0.039 -0.002  0.000  0.000  0.001
 -0.002  0.080  0.001 -0.035  0.004
  0.000  0.001  0.077  0.004  0.032
  0.000 -0.035  0.004  0.066  0.001
  0.001  0.004  0.032  0.001  0.065
atomic mag. moment =     4.631503
atom   51   Tr[ns(na)] (up, down, total) =   0.32745  4.95970  5.28714
   spin  1
    eigenvalues: 
  0.038  0.038  0.039  0.106  0.107
    eigenvectors:
  0.009  0.002  0.989  0.000  0.000
  0.159  0.254  0.000  0.125  0.462
  0.251  0.158  0.004  0.463  0.124
  0.306  0.279  0.001  0.045  0.368
  0.274  0.307  0.006  0.367  0.046
    occupations:
  0.039  0.000 -0.000  0.000  0.000
  0.000  0.078  0.000  0.034  0.004
 -0.000  0.000  0.078  0.005 -0.033
  0.000  0.034  0.005  0.066 -0.000
  0.000  0.004 -0.033 -0.000  0.066
   spin  2
    eigenvalues: 
  0.990  0.990  0.990  0.994  0.995
    eigenvectors:
  1.000  0.000  0.000  0.000  0.000
  0.000  0.004  0.187  0.140  0.668
  0.000  0.177  0.003  0.683  0.138
[...]
    12.3606  12.3660  12.3900  12.3971  12.4125  12.4209  12.4306  12.4532
    12.4596  12.4709  12.4805  12.4831  12.4987  12.5050  12.5200  12.5248
    12.5375  12.5426  12.5491  12.5571  12.5580  12.5729  12.5746  12.5773
    12.5823  12.5879  12.6003  12.6115  12.6237  12.6272  12.6375  12.6401
    12.6438  12.6528  12.6587  12.6623  12.6646  12.6797  12.6819  12.6936
    12.6998  12.7115  12.7382  12.7570  12.7717  12.7780  12.7987  12.8040
    12.8149  12.8228  12.8358  12.8461  12.8535  12.8727  12.8868  12.8956
    12.9000  12.9121  12.9137  12.9205  12.9298  12.9495  12.9559  12.9739
    12.9822  12.9907  12.9969  13.0004  13.0123  13.0209  13.0229  13.0374
    13.0589  13.0675  13.0824  13.0869  13.0906  13.1011  13.1098  13.1148
    13.1206  13.1301  13.1414  13.1543  13.1745  13.1889  13.2002  13.2298
    14.0677  14.7756  15.8717  15.9404  16.0576  16.5007

     the Fermi energy is    11.2941 ev

!    total energy              =  -14155.52469045 Ry
     Harris-Foulkes estimate   =  -14155.52469035 Ry
     estimated scf accuracy    <       0.00000009 Ry

     The total energy is the sum of the following terms:

     one-electron contribution =   -7764.70118953 Ry
     hartree contribution      =    4448.17894958 Ry
     xc contribution           =   -1955.49567111 Ry
     ewald contribution        =   -8888.85317540 Ry
     Hubbard energy            =       5.34639600 Ry
     smearing contrib. (-TS)   =       0.00000000 Ry

     total magnetization       =     1.00 Bohr mag/cell
     absolute magnetization    =   199.34 Bohr mag/cell

     convergence has been achieved in  37 iterations

     Forces acting on atoms (cartesian axes, Ry/au):

     atom    1 type  1   force =    -0.00022508   -0.00010879    0.00004110
     atom    2 type  1   force =    -0.00006126    0.00004294    0.00025181
     atom    3 type  1   force =    -0.00004252   -0.00005821   -0.00002513
     atom    4 type  1   force =    -0.00006078   -0.00005396    0.00018648
     atom    5 type  1   force =     0.00000963   -0.00011064    0.00013823
     atom    6 type  1   force =    -0.00016317   -0.00015255   -0.00024518
     atom    7 type  1   force =     0.00019008    0.00026213    0.00020602
     atom    8 type  1   force =    -0.00014693   -0.00001511   -0.00000187
     atom    9 type  1   force =     0.00008974    0.00006646    0.00010089
     atom   10 type  1   force =     0.00000009   -0.00003397    0.00006376
     atom   11 type  1   force =    -0.00013996    0.00013753    0.00002643
     atom   12 type  1   force =    -0.00006602    0.00007651   -0.00009607
     atom   13 type  1   force =     0.00024351   -0.00022176    0.00005500
     atom   14 type  1   force =    -0.00057407    0.00000371   -0.00042740
     atom   15 type  1   force =    -0.00012691   -0.00005668   -0.00015973
     atom   16 type  1   force =    -0.00009698    0.00009620    0.00011829
     atom   17 type  1   force =     0.00009251   -0.00041737    0.00011040
     atom   18 type  1   force =    -0.00007261    0.00014613    0.00012970
     atom   19 type  2   force =    -0.00002095   -0.00005600    0.00004903
     atom   20 type  3   force =     0.00000475    0.00006683    0.00000696
     atom   21 type  2   force =    -0.00001563   -0.00026381   -0.00002430
     atom   22 type  3   force =     0.00016057   -0.00004784   -0.00015335
     atom   23 type  2   force =    -0.00008572   -0.00011143   -0.00012796
     atom   24 type  3   force =    -0.00027056    0.00003034    0.00012862
     atom   25 type  2   force =    -0.00003740   -0.00011032   -0.00013611
     atom   26 type  3   force =    -0.00000019   -0.00019990   -0.00001102
     atom   27 type  2   force =    -0.00002926    0.00032941   -0.00002002
     atom   28 type  3   force =     0.00016619    0.00032208   -0.00022894
     atom   29 type  2   force =    -0.00013247    0.00018961   -0.00007450
     atom   30 type  3   force =     0.00044397   -0.00011767    0.00008133
     atom   31 type  1   force =     0.00015169   -0.00008757   -0.00021257
     atom   32 type  1   force =     0.00025512   -0.00018620    0.00007311
     atom   33 type  1   force =     0.00000238    0.00007957   -0.00009405
     atom   34 type  1   force =     0.00009027    0.00003550    0.00005319
     atom   35 type  1   force =    -0.00005267   -0.00013201    0.00001391
     atom   36 type  1   force =     0.00002181   -0.00003882    0.00029367
     atom   37 type  1   force =     0.00022626    0.00011945    0.00003778
     atom   38 type  1   force =    -0.00013917   -0.00022001    0.00010910
     atom   39 type  1   force =    -0.00014002   -0.00003531    0.00010032
     atom   40 type  1   force =    -0.00013444   -0.00016473    0.00014944
     atom   41 type  1   force =    -0.00003918    0.00000927    0.00017932
     atom   42 type  1   force =     0.00004722   -0.00017433   -0.00006165
     atom   43 type  1   force =    -0.00010044   -0.00029598    0.00000911
     atom   44 type  1   force =    -0.00007105    0.00025054    0.00006396
     atom   45 type  1   force =    -0.00017394   -0.00021696    0.00013788
     atom   46 type  1   force =     0.00010911    0.00019853    0.00014848
     atom   47 type  1   force =     0.00007913   -0.00000042    0.00022172
     atom   48 type  1   force =    -0.00020814   -0.00019587   -0.00013654
     atom   49 type  2   force =     0.00006898   -0.00000008    0.00007471
     atom   50 type  3   force =     0.00001838    0.00003132    0.00006250
     atom   51 type  2   force =    -0.00006291   -0.00005914    0.00013089
     atom   52 type  3   force =     0.00002885   -0.00004903   -0.00004148
     atom   53 type  2   force =    -0.00006017   -0.00000002   -0.00016336
     atom   54 type  3   force =     0.00008296   -0.00030439    0.00019785
     atom   55 type  2   force =     0.00003854   -0.00002582   -0.00027404
     atom   56 type  3   force =     0.00006525    0.00004221   -0.00000019
     atom   57 type  2   force =    -0.00007036   -0.00004936   -0.00007225
     atom   58 type  3   force =    -0.00016003    0.00004585   -0.00022760
     atom   59 type  2   force =     0.00007170    0.00004760   -0.00013192
     atom   60 type  3   force =    -0.00026968    0.00039009    0.00011298
     atom   61 type  1   force =    -0.00014984   -0.00009149    0.00010750
     atom   62 type  1   force =     0.00014316   -0.00008390    0.00010334
     atom   63 type  1   force =    -0.00013939   -0.00001273    0.00022413
     atom   64 type  1   force =     0.00003498   -0.00001560   -0.00009310
     atom   65 type  1   force =     0.00005465   -0.00000130    0.00004273
     atom   66 type  1   force =     0.00005686    0.00018309   -0.00000208
     atom   67 type  1   force =     0.00000607    0.00007998    0.00008178
     atom   68 type  1   force =    -0.00013646    0.00001183   -0.00000024
     atom   69 type  1   force =     0.00017600   -0.00018051   -0.00003118
     atom   70 type  1   force =    -0.00021025   -0.00016200    0.00000081
     atom   71 type  1   force =    -0.00001110    0.00011433   -0.00006618
     atom   72 type  1   force =     0.00013358   -0.00021576    0.00011228
     atom   73 type  1   force =    -0.00008188    0.00010364   -0.00018923
     atom   74 type  1   force =    -0.00004483    0.00010178    0.00007052
     atom   75 type  1   force =    -0.00027022    0.00012887    0.00020534
     atom   76 type  1   force =     0.00009487    0.00016451    0.00005750
     atom   77 type  1   force =     0.00005740    0.00007308    0.00022111
     atom   78 type  1   force =    -0.00005132   -0.00008349    0.00009728
     atom   79 type  2   force =     0.00010833    0.00001189   -0.00005587
     atom   80 type  3   force =    -0.00000398   -0.00014038   -0.00007311
     atom   81 type  2   force =    -0.00020099    0.00018196   -0.00017026
     atom   82 type  3   force =    -0.00004668   -0.00002972   -0.00005908
     atom   83 type  2   force =     0.00017336   -0.00004302   -0.00021698
     atom   84 type  3   force =    -0.00020638    0.00000888   -0.00004315
     atom   85 type  2   force =     0.00000595   -0.00003060    0.00037690
     atom   86 type  3   force =    -0.00014078    0.00013140   -0.00002753
     atom   87 type  2   force =     0.00024179   -0.00026110    0.00015731
     atom   88 type  3   force =     0.00000901   -0.00011545    0.00023365
     atom   89 type  2   force =     0.00014432   -0.00009799    0.00001036
     atom   90 type  3   force =    -0.00000242    0.00006981    0.00012318
     atom   91 type  1   force =     0.00002021    0.00015645    0.00020431
     atom   92 type  1   force =    -0.00010618    0.00018822   -0.00016646
     atom   93 type  1   force =     0.00011731   -0.00008516    0.00009737
     atom   94 type  1   force =     0.00020284    0.00000529    0.00006881
     atom   95 type  1   force =     0.00012426   -0.00007075   -0.00007356
     atom   96 type  1   force =     0.00023277    0.00034429    0.00009788
     atom   97 type  1   force =    -0.00002310   -0.00006212   -0.00009677
     atom   98 type  1   force =     0.00019724   -0.00002564   -0.00009294
     atom   99 type  1   force =    -0.00000756    0.00034917    0.00010570
     atom  100 type  1   force =     0.00000159    0.00011082   -0.00000318
     atom  101 type  1   force =     0.00006418    0.00004645    0.00011241
     atom  102 type  1   force =     0.00032297   -0.00001208   -0.00007653
     atom  103 type  1   force =     0.00020166    0.00004861    0.00013855
     atom  104 type  1   force =    -0.00006870    0.00035091    0.00007404
     atom  105 type  1   force =    -0.00044869   -0.00008670    0.00008955
     atom  106 type  1   force =    -0.00004526    0.00010532   -0.00002879
     atom  107 type  1   force =     0.00020649    0.00023227   -0.00006255
     atom  108 type  1   force =     0.00021712   -0.00015038   -0.00023930
     atom  109 type  2   force =    -0.00006365    0.00003531    0.00006419
     atom  110 type  3   force =     0.00005283    0.00002318   -0.00029184
     atom  111 type  2   force =     0.00035212    0.00019834   -0.00006173
     atom  112 type  3   force =    -0.00013043   -0.00013110   -0.00099575
     atom  113 type  4   force =     0.00002148   -0.00001817   -0.00026791
     atom  114 type  3   force =     0.00011422   -0.00009958    0.00002742
     atom  115 type  2   force =     0.00000777    0.00024765   -0.00017353
     atom  116 type  3   force =     0.00025002    0.00002958   -0.00004372
     atom  117 type  2   force =    -0.00025799    0.00000429   -0.00001653
     atom  118 type  3   force =     0.00006948   -0.00027842   -0.00024728
     atom  119 type  2   force =     0.00008384    0.00001857   -0.00005520
     atom  120 type  4   force =    -0.00016066    0.00007764   -0.00000111

     Total force =     0.002986     Total SCF correction =     0.000342
     SCF correction compared to forces is large: reduce conv_thr to get better values

     BFGS Geometry Optimization

     bfgs converged in   1 scf cycles and   0 bfgs steps
     (criteria: energy <  1.0E-04 Ry, force <  1.0E-03 Ry/Bohr)

     End of BFGS Geometry Optimization

     Final energy   =  -14155.5246904537 Ry
Begin final coordinates

ATOMIC_POSITIONS (crystal)
O        0.319042714   0.332931514   0.916426234
O        0.166520608   0.485532286   0.916169465
O        0.485678094   0.318925251   0.082424555
O        0.333310350   0.014151076   0.083027400
O        0.180818681   0.166514136   0.083152766
O        0.013781641   0.180459175   0.916556148
O        0.155767782   0.001344532   0.250401458
O       -0.003473249   0.149620714   0.249735395
O        0.314258527   0.485772393   0.417021902
O        0.166118835   0.180991602   0.416824490
O        0.015747799   0.336307143   0.416267766
O        0.342154034   0.344872314   0.249931167
O        0.484864435   0.166567879   0.584302635
O        0.333703186   0.319086278   0.583701345
O        0.152697137   0.152714170   0.750595405
O        0.000341342   0.348038992   0.750732454
O        0.347153857   0.000196867   0.750659086
O        0.180990789   0.014979864   0.584190626
Fe1      0.165186639   0.331624529   0.020672723
Fe2      0.000249692  -0.001424125   0.144761131
Fe1      0.333100908   0.166435216   0.978471120
Fe2     -0.000262311  -0.000398398   0.855807806
Fe1     -0.000962597  -0.002929712   0.353536119
Fe2      0.329211686   0.163261203   0.479896733
Fe1      0.157832019   0.328229942   0.311155798
Fe2      0.333054445   0.165171123   0.186886467
Fe1      0.333471772   0.167018655   0.689025516
Fe2      0.166969894   0.333652965   0.812814178
Fe1      0.002820311   0.003465874   0.648173091
Fe2      0.166180674   0.331213823   0.522898778
O        0.818958302   0.333345940   0.916487124
O        0.666651613   0.486052186   0.916518463
O        0.985426956   0.318818263   0.082400552
O        0.832835640   0.013530294   0.083405461
O        0.680585983   0.167021848   0.081745164
O        0.513895292   0.180924286   0.916403418
O        0.649582786   0.009324920   0.248539041
O        0.498216765   0.153430542   0.250378339
O        0.819484709   0.483452716   0.416389865
O        0.666258883   0.181116919   0.417150903
O        0.513653385   0.330040659   0.417249830
O        0.849131800   0.347986986   0.248855694
O        0.986369135   0.168392282   0.585302296
O        0.833835359   0.320563168   0.584069145
O        0.652300661   0.152691340   0.750739977
O        0.500155194   0.347504618   0.750424385
O        0.847064822  -0.000209531   0.749981431
O        0.680554676   0.019868570   0.584439300
Fe1      0.666870708   0.333552911   0.020854810
Fe2      0.500370484   0.000372805   0.144596617
Fe1      0.832889157   0.166596967   0.978234413
Fe2      0.500217295   0.000161230   0.855900118
Fe1      0.499168711  -0.000323773   0.353931991
Fe2      0.837654389   0.176320260   0.479116877
Fe1      0.669496314   0.328181690   0.311202419
Fe2      0.832478397   0.166649266   0.185773062
Fe1      0.834279276   0.168156456   0.690309472
Fe2      0.666654834   0.333105308   0.812953554
Fe1      0.496138185   0.000240444   0.648383876
Fe2      0.665656660   0.331932895   0.523055889
O        0.319329089   0.833295183   0.916584289
O        0.166726464   0.985788069   0.916540421
O        0.485584073   0.818475265   0.083418389
O        0.331615248   0.513263354   0.080969316
O        0.180910705   0.666446821   0.082889775
O        0.014381546   0.680798415   0.916441487
O        0.151545742   0.498805080   0.249108288
O        0.001596907   0.652344707   0.249405916
O        0.319113361   0.985525080   0.417521968
O        0.163907619   0.681013690   0.416863913
O        0.015591486   0.833400282   0.417631140
O        0.347255693   0.846480176   0.250507687
O        0.482694911   0.662348235   0.583323429
O        0.331927119   0.818580586   0.585065527
O        0.152208738   0.652466521   0.750666757
O        0.000138771   0.847638723   0.750478414
O        0.347548681   0.499685039   0.750352787
O        0.180099801   0.513435378   0.584181164
Fe1      0.167356342   0.833368254   0.020996177
Fe2     -0.000108146   0.499546756   0.143876743
Fe1      0.333042511   0.666217697   0.978186351
Fe2     -0.000031229   0.499923149   0.855493242
Fe1      0.000975208   0.502020831   0.352301654
Fe2      0.324371708   0.665661657   0.480999224
Fe1      0.167315360   0.834260452   0.311414964
Fe2      0.331167091   0.666048202   0.186921397
Fe1      0.332139561   0.666265266   0.690416517
Fe2      0.166283467   0.833305115   0.812849296
Fe1      0.000514401   0.500108720   0.646851028
Fe2      0.167768664   0.835669556   0.521763797
O        0.818899712   0.833179234   0.916399959
O        0.666573685   0.985436029   0.916687728
O        0.986655664   0.818581962   0.081870911
O        0.833274537   0.513912729   0.082910208
O        0.681917429   0.667048537   0.082174912
O        0.514051416   0.680778075   0.916583416
O        0.652605433   0.496251848   0.249993011
O        0.497412222   0.645742476   0.245298990
O        0.825281980   0.994358136   0.420331346
O        0.674631898   0.683062313   0.417737809
O        0.507359475   0.829792236   0.419204703
O        0.859218028   0.847771346   0.248572817
O        0.987149073   0.666802276   0.584277634
O        0.837633776   0.819409351   0.583888287
O        0.652693580   0.652769366   0.750018573
O        0.500112139   0.847322826   0.750056001
O        0.847425678   0.499633490   0.750577459
O        0.681478465   0.513811597   0.583962182
Fe1      0.666673578   0.833814492   0.021468316
Fe2      0.499120209   0.500736912   0.138572067
Fe1      0.833762935   0.666879594   0.978148806
Fe2      0.499859444   0.500109535   0.855780490
Sn       0.499411665   0.501023136   0.351296249
Fe2      0.841862018   0.662570382   0.480720549
Fe1      0.674459176   0.844648889   0.302308282
Fe2      0.836251751   0.667506378   0.186722158
Fe1      0.833483788   0.665677656   0.690407483
Fe2      0.666601531   0.833300818   0.812927906
Fe1      0.500512798   0.496856608   0.648012082
Sn       0.667489965   0.835895769   0.518055366
End final coordinates



     Writing output data file fe2o3.save
 
     init_run     :     37.21s CPU     38.08s WALL (       1 calls)
     electrons    :   4370.62s CPU   4425.60s WALL (       1 calls)
     forces       :     55.10s CPU     55.40s WALL (       1 calls)

     Called by init_run:
     wfcinit      :     31.86s CPU     32.19s WALL (       1 calls)
     potinit      :      0.98s CPU      1.01s WALL (       1 calls)

     Called by electrons:
     c_bands      :   4022.00s CPU   4061.67s WALL (      37 calls)
     sum_band     :    291.56s CPU    299.64s WALL (      37 calls)
     v_of_rho     :      9.71s CPU     10.01s WALL (      38 calls)
     newd         :     44.54s CPU     51.46s WALL (      38 calls)
     mix_rho      :      2.49s CPU      2.58s WALL (      37 calls)

     Called by c_bands:
     init_us_2    :      7.65s CPU      7.69s WALL (     156 calls)
     cegterg      :   3519.37s CPU   3555.87s WALL (      74 calls)

     Called by sum_band:
     sum_band:bec :      0.95s CPU      0.95s WALL (      74 calls)
     addusdens    :     78.65s CPU     86.41s WALL (      37 calls)

     Called by *egterg:
     h_psi        :    931.55s CPU    932.02s WALL (     370 calls)
     s_psi        :    242.91s CPU    242.76s WALL (     374 calls)
     g_psi        :      2.02s CPU      2.02s WALL (     294 calls)
     cdiaghg      :   1830.06s CPU   1850.25s WALL (     368 calls)

     Called by h_psi:
     h_psi:pot    :    741.56s CPU    742.07s WALL (     370 calls)
     h_psi:calbec :    235.67s CPU    235.57s WALL (     370 calls)
     vloc_psi     :    269.33s CPU    269.88s WALL (     370 calls)
     add_vuspsi   :    236.56s CPU    236.62s WALL (     370 calls)
     vhpsi        :    185.23s CPU    185.19s WALL (     370 calls)

     General routines
     calbec       :    433.31s CPU    433.22s WALL (    3062 calls)
     fft          :      5.14s CPU      5.80s WALL (    1187 calls)
     ffts         :      0.21s CPU      0.24s WALL (     150 calls)
     fftw         :    258.60s CPU    259.11s WALL (  287530 calls)
     interpolate  :      1.09s CPU      1.19s WALL (     150 calls)
     davcio       :      0.00s CPU      0.04s WALL (       2 calls)
 
     Parallel routines
     fft_scatter  :     80.91s CPU     81.61s WALL (  288867 calls)

     Hubbard U routines
     new_ns       :     16.74s CPU     16.74s WALL (      37 calls)
     vhpsi        :    185.23s CPU    185.19s WALL (     370 calls)
     force_hub    :     37.36s CPU     37.37s WALL (       1 calls)
 
     PWSCF        :     1h14m CPU        1h15m WALL

 
   This run was terminated on:  12:23:36   9Oct2019            

=------------------------------------------------------------------------------=
   JOB DONE.
=------------------------------------------------------------------------------=
