[Molden Format]
[FREQ]
   78.67
   92.53
   92.53
  810.96
 1348.61
 1348.61
[FR-COORD]
   B          -0.00000        2.73494       14.17295
   N           2.36853        1.36747       14.17295
[FR-NORM-COORD]
 vibration     1
   0.00000   0.00000   0.71498
   0.00000   0.00000   0.69914
 vibration     2
   0.00000  -0.70930   0.00000
   0.00000  -0.70491   0.00000
 vibration     3
  -0.70930   0.00000   0.00000
  -0.70491   0.00000   0.00000
 vibration     4
   0.00000  -0.00000   0.78494
   0.00000  -0.00000  -0.61957
 vibration     5
   0.00000  -0.78978  -0.00000
   0.00000   0.61339   0.00000
 vibration     6
  -0.78978   0.00000   0.00000
   0.61339   0.00000   0.00000
