
     Program PWSCF v.6.1 (svn rev. 13369) starts on 10Feb2021 at 22:54: 3 

     This program is part of the open-source Quantum ESPRESSO suite
     for quantum simulation of materials; please cite
         "P. Giannozzi et al., J. Phys.:Condens. Matter 21 395502 (2009);
          URL http://www.quantum-espresso.org", 
     in publications or presentations arising from this work. More details at
     http://www.quantum-espresso.org/quote

     Parallel version (MPI), running on   160 processors
     K-points division:     npool     =       2
     R & G space division:  proc/nbgrp/npool/nimage =      80
     Reading input from scf.in
Warning: card &CELL ignored
Warning: card / ignored
Warning: card &IONS ignored
Warning: card / ignored

     Current dimensions of program PWSCF are:
     Max number of different atomic species (ntypx) = 10
     Max number of k-points (npk) = 120000
     Max angular momentum in pseudopotentials (lmaxx) =  3

     Subspace diagonalization in iterative solution of the eigenvalue problem:
     a serial algorithm will be used

 
     Parallelization info
     --------------------
     sticks:   dense  smooth     PW     G-vecs:    dense   smooth      PW
     Min         153     153     38                14461    14461    1806
     Max         154     154     39                14464    14464    1813
     Sum       12259   12259   3067              1156971  1156971  144701
 


     bravais-lattice index     =            0
     lattice parameter (alat)  =      28.4287  a.u.
     unit-cell volume          =   20997.3881 (a.u.)^3
     number of atoms/cell      =           72
     number of atomic types    =            3
     number of electrons       =       288.00 (up: 144.00, down: 144.00)
     number of Kohn-Sham states=          168
     kinetic-energy cutoff     =      55.0000  Ry
     charge density cutoff     =     220.0000  Ry
     convergence threshold     =      1.0E-08
     mixing beta               =       0.7000
     number of iterations used =            8  plain     mixing
     Exchange-correlation      = PBE ( 1  4  3  4 0 0)

     celldm(1)=  28.428666  celldm(2)=   0.000000  celldm(3)=   0.000000
     celldm(4)=   0.000000  celldm(5)=   0.000000  celldm(6)=   0.000000

     crystal axes: (cart. coord. in units of alat)
               a(1) = (   1.000000   0.000000   0.000000 )  
               a(2) = (  -0.499999   0.866026   0.000000 )  
               a(3) = (   0.000000   0.000000   1.055273 )  

     reciprocal axes: (cart. coord. in units 2 pi/alat)
               b(1) = (  1.000000  0.577349  0.000000 )  
               b(2) = (  0.000000  1.154700  0.000000 )  
               b(3) = (  0.000000  0.000000  0.947622 )  


     PseudoPot. # 1 for B  read from file:
     ~/pseudo-ONCV-proj/B_ONCV_PBE-1.0.upf
     MD5 check sum: Not computed, couldn't open file
     Pseudo is Norm-conserving, Zval =  3.0
     Generated using ONCVPSP code by D. R. Hamann
     Using radial grid of 1534 points,  4 beta functions with: 
                l(1) =   0
                l(2) =   0
                l(3) =   1
                l(4) =   1

     PseudoPot. # 2 for N  read from file:
     ~/pseudo-ONCV-proj/N_ONCV_PBE-1.0.upf
     MD5 check sum: Not computed, couldn't open file
     Pseudo is Norm-conserving, Zval =  5.0
     Generated using ONCVPSP code by D. R. Hamann
     Using radial grid of 1058 points,  4 beta functions with: 
                l(1) =   0
                l(2) =   0
                l(3) =   1
                l(4) =   1

     PseudoPot. # 3 for C  read from file:
     ~/pseudo-ONCV-proj/C_ONCV_PBE-1.0.upf
     MD5 check sum: Not computed, couldn't open file
     Pseudo is Norm-conserving, Zval =  4.0
     Generated using ONCVPSP code by D. R. Hamann
     Using radial grid of 1248 points,  4 beta functions with: 
                l(1) =   0
                l(2) =   0
                l(3) =   1
                l(4) =   1

     atomic species   valence    mass     pseudopotential
        B              3.00    10.81100     B ( 1.00)
        N              5.00    14.00674     N ( 1.00)
        C              4.00    12.01070     C ( 1.00)

     Starting magnetic structure 
     atomic species   magnetization
        B            1.000
        N            0.000
        C            0.000

      2 Sym. Ops. (no inversion) found


                                    s                        frac. trans.

      isym =  1     identity                                     

 cryst.   s( 1) = (     1          0          0      )
                  (     0          1          0      )
                  (     0          0          1      )

 cart.    s( 1) = (  1.0000000 -0.0000000  0.0000000 )
                  (  0.0000000  1.0000000  0.0000000 )
                  (  0.0000000  0.0000000  1.0000000 )


      isym =  2     inv. 180 deg rotation - cart. axis [0,0,1]   

 cryst.   s( 2) = (     1          0          0      )
                  (     0          1          0      )
                  (     0          0         -1      )

 cart.    s( 2) = (  1.0000000 -0.0000000  0.0000000 )
                  (  0.0000000  1.0000000  0.0000000 )
                  (  0.0000000  0.0000000 -1.0000000 )


   Cartesian axes

     site n.     atom                  positions (alat units)
         1           B   tau(   1) = (  -0.0001164   0.0960366   0.5276366  )
         2           B   tau(   2) = (  -0.0833307   0.2405401   0.5276366  )
         3           B   tau(   3) = (  -0.1666845   0.3849135   0.5276366  )
         4           B   tau(   4) = (  -0.2502207   0.5292312   0.5276366  )
         5           B   tau(   5) = (  -0.3332785   0.6735984   0.5276366  )
         6           B   tau(   6) = (  -0.4166190   0.8179487   0.5276366  )
         7           B   tau(   7) = (   0.1666593   0.0960117   0.5276366  )
         8           B   tau(   8) = (   0.0831938   0.2402604   0.5276366  )
         9           B   tau(   9) = (   0.0003493   0.3851017   0.5276366  )
        10           B   tau(  10) = (  -0.0836644   0.5292679   0.5276366  )
        11           B   tau(  11) = (  -0.1668543   0.6736758   0.5276366  )
        12           B   tau(  12) = (  -0.2500093   0.8179073   0.5276366  )
        13           B   tau(  13) = (   0.3334635   0.0959688   0.5276366  )
        14           B   tau(  14) = (   0.2504332   0.2395327   0.5276366  )
        15           B   tau(  15) = (   0.1676272   0.3831982   0.5276366  )
        16           B   tau(  16) = (   0.0823400   0.5309204   0.5276366  )
        17           B   tau(  17) = (  -0.0006747   0.6744654   0.5276366  )
        18           B   tau(  18) = (  -0.0834892   0.8181540   0.5276366  )
        19           B   tau(  19) = (   0.5000394   0.0962476   0.5276366  )
        20           B   tau(  20) = (   0.4164618   0.2408162   0.5276366  )
        21           B   tau(  21) = (   0.3322553   0.3851653   0.5276366  )
        22           B   tau(  22) = (   0.1663577   0.6725091   0.5276366  )
        23           B   tau(  23) = (   0.0834513   0.8176088   0.5276366  )
        24           B   tau(  24) = (   0.6666596   0.0961408   0.5276366  )
        25           B   tau(  25) = (   0.5832572   0.2405984   0.5276366  )
        26           B   tau(  26) = (   0.4998297   0.3850364   0.5276366  )
        27           B   tau(  27) = (   0.4167990   0.5299549   0.5276366  )
        28           B   tau(  28) = (   0.3340209   0.6733312   0.5276366  )
        29           B   tau(  29) = (   0.2500334   0.8176974   0.5276366  )
        30           B   tau(  30) = (   0.8332663   0.0961408   0.5276366  )
        31           B   tau(  31) = (   0.7499605   0.2405396   0.5276366  )
        32           B   tau(  32) = (   0.6665607   0.3848841   0.5276366  )
        33           B   tau(  33) = (   0.5831200   0.5292650   0.5276366  )
        34           B   tau(  34) = (   0.5004978   0.6738625   0.5276366  )
        35           B   tau(  35) = (   0.4165841   0.8177145   0.5276366  )
        36           N   tau(  36) = (   0.0832361   0.0479616   0.5276366  )
        37           N   tau(  37) = (  -0.0002132   0.1920823   0.5276366  )
        38           N   tau(  38) = (  -0.0832536   0.3368335   0.5276366  )
        39           N   tau(  39) = (  -0.1670912   0.4811244   0.5276366  )
        40           N   tau(  40) = (  -0.2501785   0.6254542   0.5276366  )
        41           N   tau(  41) = (  -0.3333958   0.7697641   0.5276366  )
        42           N   tau(  42) = (   0.2500419   0.0479787   0.5276366  )
        43           N   tau(  43) = (   0.1667029   0.1919642   0.5276366  )
        44           N   tau(  44) = (   0.0834072   0.3360870   0.5276366  )
        45           N   tau(  45) = (  -0.0005695   0.4815393   0.5276366  )
        46           N   tau(  46) = (  -0.0837353   0.6257371   0.5276366  )
        47           N   tau(  47) = (  -0.1667605   0.7699037   0.5276366  )
        48           N   tau(  48) = (   0.4167896   0.0481833   0.5276366  )
        49           N   tau(  49) = (   0.3337783   0.1919138   0.5276366  )
        50           N   tau(  50) = (   0.2507718   0.3350477   0.5276366  )
        51           N   tau(  51) = (   0.0822129   0.6270010   0.5276366  )
        52           N   tau(  52) = (  -0.0002411   0.7704539   0.5276366  )
        53           N   tau(  53) = (   0.5834873   0.0479197   0.5276366  )
        54           N   tau(  54) = (   0.4999104   0.1926796   0.5276366  )
        55           N   tau(  55) = (   0.4160983   0.3376880   0.5276366  )
        56           N   tau(  56) = (   0.3320698   0.4834122   0.5276366  )
        57           N   tau(  57) = (   0.2513491   0.6232248   0.5276366  )
        58           N   tau(  58) = (   0.1671629   0.7688579   0.5276366  )
        59           N   tau(  59) = (   0.7499444   0.0478366   0.5276366  )
        60           N   tau(  60) = (   0.6665789   0.1923992   0.5276366  )
        61           N   tau(  61) = (   0.5830670   0.3368774   0.5276366  )
        62           N   tau(  62) = (   0.4994645   0.4812423   0.5276366  )
        63           N   tau(  63) = (   0.4172223   0.6257834   0.5276366  )
        64           N   tau(  64) = (   0.3331675   0.7692780   0.5276366  )
        65           N   tau(  65) = (   0.9164630   0.0478130   0.5276366  )
        66           N   tau(  66) = (   0.8332244   0.1923552   0.5276366  )
        67           N   tau(  67) = (   0.7498637   0.3367406   0.5276366  )
        68           N   tau(  68) = (   0.6663061   0.4810986   0.5276366  )
        69           N   tau(  69) = (   0.5833786   0.6254607   0.5276366  )
        70           N   tau(  70) = (   0.5000212   0.7698404   0.5276366  )
        71           C   tau(  71) = (   0.2514308   0.5300636   0.5276366  )
        72           C   tau(  72) = (   0.1700328   0.4830684   0.5276366  )

   Crystallographic axes

     site n.     atom                  positions (cryst. coord.)
         1           B   tau(   1) = (  0.0553302  0.1108935  0.5000000  )
         2           B   tau(   2) = (  0.0555448  0.2777516  0.5000000  )
         3           B   tau(   3) = (  0.0555448  0.4444595  0.5000000  )
         4           B   tau(   4) = (  0.0553302  0.6111031  0.5000000  )
         5           B   tau(   5) = (  0.0556227  0.7778039  0.5000000  )
         6           B   tau(   6) = (  0.0556227  0.9444852  0.5000000  )
         7           B   tau(   7) = (  0.2220916  0.1108647  0.5000000  )
         8           B   tau(   8) = (  0.2219078  0.2774286  0.5000000  )
         9           B   tau(   9) = (  0.2226873  0.4446768  0.5000000  )
        10           B   tau(  10) = (  0.2219078  0.6111455  0.5000000  )
        11           B   tau(  11) = (  0.2220916  0.7778932  0.5000000  )
        12           B   tau(  12) = (  0.2222084  0.9444374  0.5000000  )
        13           B   tau(  13) = (  0.3888710  0.1108151  0.5000000  )
        14           B   tau(  14) = (  0.3887271  0.2765883  0.5000000  )
        15           B   tau(  15) = (  0.3888662  0.4424789  0.5000000  )
        16           B   tau(  16) = (  0.3888662  0.6130537  0.5000000  )
        17           B   tau(  17) = (  0.3887271  0.7788051  0.5000000  )
        18           B   tau(  18) = (  0.3888710  0.9447222  0.5000000  )
        19           B   tau(  19) = (  0.5556078  0.1111371  0.5000000  )
        20           B   tau(  20) = (  0.5554967  0.2780704  0.5000000  )
        21           B   tau(  21) = (  0.5546300  0.4447502  0.5000000  )
        22           B   tau(  22) = (  0.5546300  0.7765461  0.5000000  )
        23           B   tau(  23) = (  0.5554967  0.9440926  0.5000000  )
        24           B   tau(  24) = (  0.7221664  0.1110138  0.5000000  )
        25           B   tau(  25) = (  0.7221664  0.2778190  0.5000000  )
        26           B   tau(  26) = (  0.7221300  0.4446014  0.5000000  )
        27           B   tau(  27) = (  0.7227678  0.6119388  0.5000000  )
        28           B   tau(  28) = (  0.7227678  0.7774953  0.5000000  )
        29           B   tau(  29) = (  0.7221300  0.9441949  0.5000000  )
        30           B   tau(  30) = (  0.8887730  0.1110138  0.5000000  )
        31           B   tau(  31) = (  0.8888357  0.2777510  0.5000000  )
        32           B   tau(  32) = (  0.8887730  0.4444256  0.5000000  )
        33           B   tau(  33) = (  0.8886905  0.6111422  0.5000000  )
        34           B   tau(  34) = (  0.8895514  0.7781089  0.5000000  )
        35           B   tau(  35) = (  0.8886905  0.9442147  0.5000000  )
        36           N   tau(  36) = (  0.1109267  0.0553812  0.5000000  )
        37           N   tau(  37) = (  0.1106853  0.2217974  0.5000000  )
        38           N   tau(  38) = (  0.1112168  0.3889415  0.5000000  )
        39           N   tau(  39) = (  0.1106853  0.5555542  0.5000000  )
        40           N   tau(  40) = (  0.1109267  0.7222118  0.5000000  )
        41           N   tau(  41) = (  0.1110266  0.8888464  0.5000000  )
        42           N   tau(  42) = (  0.2777424  0.0554010  0.5000000  )
        43           N   tau(  43) = (  0.2775332  0.2216610  0.5000000  )
        44           N   tau(  44) = (  0.2774466  0.3880795  0.5000000  )
        45           N   tau(  45) = (  0.2774466  0.5560334  0.5000000  )
        46           N   tau(  46) = (  0.2775332  0.7225384  0.5000000  )
        47           N   tau(  47) = (  0.2777424  0.8890076  0.5000000  )
        48           N   tau(  48) = (  0.4446082  0.0556372  0.5000000  )
        49           N   tau(  49) = (  0.4445795  0.2216028  0.5000000  )
        50           N   tau(  50) = (  0.4442112  0.3868795  0.5000000  )
        51           N   tau(  51) = (  0.4442112  0.7239979  0.5000000  )
        52           N   tau(  52) = (  0.4445795  0.8896429  0.5000000  )
        53           N   tau(  53) = (  0.6111537  0.0553329  0.5000000  )
        54           N   tau(  54) = (  0.6111537  0.2224871  0.5000000  )
        55           N   tau(  55) = (  0.6110620  0.3899283  0.5000000  )
        56           N   tau(  56) = (  0.6111672  0.5581959  0.5000000  )
        57           N   tau(  57) = (  0.6111672  0.7196376  0.5000000  )
        58           N   tau(  58) = (  0.6110620  0.8878000  0.5000000  )
        59           N   tau(  59) = (  0.7775628  0.0552369  0.5000000  )
        60           N   tau(  60) = (  0.7776604  0.2221634  0.5000000  )
        61           N   tau(  61) = (  0.7775628  0.3889922  0.5000000  )
        62           N   tau(  62) = (  0.7773091  0.5556903  0.5000000  )
        63           N   tau(  63) = (  0.7785175  0.7225919  0.5000000  )
        64           N   tau(  64) = (  0.7773091  0.8882851  0.5000000  )
        65           N   tau(  65) = (  0.9440678  0.0552096  0.5000000  )
        66           N   tau(  66) = (  0.9442804  0.2221125  0.5000000  )
        67           N   tau(  67) = (  0.9442804  0.3888343  0.5000000  )
        68           N   tau(  68) = (  0.9440678  0.5555245  0.5000000  )
        69           N   tau(  69) = (  0.9444875  0.7222193  0.5000000  )
        70           N   tau(  70) = (  0.9444875  0.8889345  0.5000000  )
        71           C   tau(  71) = (  0.5574623  0.6120643  0.5000000  )
        72           C   tau(  72) = (  0.4489317  0.5577990  0.5000000  )

     number of k points=     1
                       cart. coord. in units 2pi/alat
        k(    1) = (   0.0000000   0.0000000   0.0000000), wk =   1.0000000

                       cryst. coord.
        k(    1) = (   0.0000000   0.0000000   0.0000000), wk =   1.0000000

     Dense  grid:  1156971 G-vectors     FFT dimensions: ( 135, 135, 144)

     Estimated max dynamical RAM per process >      68.84MB

     Estimated total allocated dynamical RAM >   11014.86MB
     Generating pointlists ...
     new r_m :   0.0394 (alat units)  1.1201 (a.u.) for type    1
     new r_m :   0.0384 (alat units)  1.0925 (a.u.) for type    2
     new r_m :   0.0384 (alat units)  1.0925 (a.u.) for type    3

     Initial potential from superposition of free atoms
     Check: negative starting charge=(component1):   -0.001386
     Check: negative starting charge=(component2):   -0.001913

     starting charge  287.99093, renormalised to  288.00000

     negative rho (up, down):  1.386E-03 1.913E-03
     Starting wfc are  288 randomized atomic wfcs

     total cpu time spent up to now is        2.9 secs

     per-process dynamical memory:    91.4 Mb

     Self-consistent Calculation

     iteration #  1     ecut=    55.00 Ry     beta=0.70
     Davidson diagonalization with overlap
     ethr =  1.00E-02,  avg # of iterations =  2.5

     negative rho (up, down):  1.552E-04 3.038E-04

     total cpu time spent up to now is        4.4 secs

     total energy              =    -916.57036833 Ry
     Harris-Foulkes estimate   =    -922.74693096 Ry
     estimated scf accuracy    <      17.34397199 Ry

     total magnetization       =    -0.00 Bohr mag/cell
     absolute magnetization    =    18.29 Bohr mag/cell

     iteration #  2     ecut=    55.00 Ry     beta=0.70
     Davidson diagonalization with overlap
     ethr =  6.02E-03,  avg # of iterations =  3.0

     negative rho (up, down):  6.525E-05 1.193E-04

     total cpu time spent up to now is        5.8 secs

     total energy              =    -921.51637495 Ry
     Harris-Foulkes estimate   =    -925.96189908 Ry
     estimated scf accuracy    <      10.31883768 Ry

     total magnetization       =    -0.00 Bohr mag/cell
     absolute magnetization    =    13.63 Bohr mag/cell

     iteration #  3     ecut=    55.00 Ry     beta=0.70
     Davidson diagonalization with overlap
     ethr =  3.58E-03,  avg # of iterations =  3.0

     negative rho (up, down):  3.606E-06 8.462E-06

     total cpu time spent up to now is        7.0 secs

     total energy              =    -923.61147896 Ry
     Harris-Foulkes estimate   =    -923.52788965 Ry
     estimated scf accuracy    <       0.37487339 Ry

     total magnetization       =     0.00 Bohr mag/cell
     absolute magnetization    =     8.67 Bohr mag/cell

     iteration #  4     ecut=    55.00 Ry     beta=0.70
     Davidson diagonalization with overlap
     c_bands:  3 eigenvalues not converged
     ethr =  1.30E-04,  avg # of iterations = 18.5

     total cpu time spent up to now is       11.2 secs

     total energy              =    -923.78708944 Ry
     Harris-Foulkes estimate   =    -923.97533550 Ry
     estimated scf accuracy    <       0.63786032 Ry

     total magnetization       =     0.00 Bohr mag/cell
     absolute magnetization    =     5.08 Bohr mag/cell

     iteration #  5     ecut=    55.00 Ry     beta=0.70
     Davidson diagonalization with overlap
     ethr =  1.30E-04,  avg # of iterations =  6.5

     negative rho (up, down):  7.153E-09 1.301E-08

     total cpu time spent up to now is       12.9 secs

     total energy              =    -923.90741236 Ry
     Harris-Foulkes estimate   =    -923.90774476 Ry
     estimated scf accuracy    <       0.03254249 Ry

     total magnetization       =    -0.00 Bohr mag/cell
     absolute magnetization    =     3.52 Bohr mag/cell

     iteration #  6     ecut=    55.00 Ry     beta=0.70
     Davidson diagonalization with overlap
     ethr =  1.13E-05,  avg # of iterations =  8.0

     total cpu time spent up to now is       14.9 secs

     total energy              =    -923.92733715 Ry
     Harris-Foulkes estimate   =    -923.91567727 Ry
     estimated scf accuracy    <       0.00616208 Ry

     total magnetization       =    -0.00 Bohr mag/cell
     absolute magnetization    =     2.64 Bohr mag/cell

     iteration #  7     ecut=    55.00 Ry     beta=0.70
     Davidson diagonalization with overlap
     ethr =  2.14E-06,  avg # of iterations =  4.5

     total cpu time spent up to now is       17.0 secs

     total energy              =    -923.93512184 Ry
     Harris-Foulkes estimate   =    -923.93511753 Ry
     estimated scf accuracy    <       0.00518526 Ry

     total magnetization       =    -0.00 Bohr mag/cell
     absolute magnetization    =     1.00 Bohr mag/cell

     iteration #  8     ecut=    55.00 Ry     beta=0.70
     Davidson diagonalization with overlap
     ethr =  1.80E-06,  avg # of iterations =  2.5

     total cpu time spent up to now is       18.4 secs

     total energy              =    -923.93604225 Ry
     Harris-Foulkes estimate   =    -923.93594971 Ry
     estimated scf accuracy    <       0.00098948 Ry

     total magnetization       =     0.00 Bohr mag/cell
     absolute magnetization    =     0.57 Bohr mag/cell

     iteration #  9     ecut=    55.00 Ry     beta=0.70
     Davidson diagonalization with overlap
     ethr =  3.44E-07,  avg # of iterations =  3.0

     total cpu time spent up to now is       19.9 secs

     total energy              =    -923.93653883 Ry
     Harris-Foulkes estimate   =    -923.93652871 Ry
     estimated scf accuracy    <       0.00008527 Ry

     total magnetization       =     0.00 Bohr mag/cell
     absolute magnetization    =     0.18 Bohr mag/cell

     iteration # 10     ecut=    55.00 Ry     beta=0.70
     Davidson diagonalization with overlap
     ethr =  2.96E-08,  avg # of iterations =  3.0

     total cpu time spent up to now is       21.4 secs

     total energy              =    -923.93661579 Ry
     Harris-Foulkes estimate   =    -923.93662290 Ry
     estimated scf accuracy    <       0.00001948 Ry

     total magnetization       =     0.00 Bohr mag/cell
     absolute magnetization    =     0.02 Bohr mag/cell

     iteration # 11     ecut=    55.00 Ry     beta=0.70
     Davidson diagonalization with overlap
     ethr =  6.76E-09,  avg # of iterations =  3.0

     total cpu time spent up to now is       22.7 secs

     total energy              =    -923.93662064 Ry
     Harris-Foulkes estimate   =    -923.93662033 Ry
     estimated scf accuracy    <       0.00000078 Ry

     total magnetization       =    -0.00 Bohr mag/cell
     absolute magnetization    =     0.01 Bohr mag/cell

     iteration # 12     ecut=    55.00 Ry     beta=0.70
     Davidson diagonalization with overlap
     ethr =  2.71E-10,  avg # of iterations =  3.5

     total cpu time spent up to now is       24.2 secs

     total energy              =    -923.93662114 Ry
     Harris-Foulkes estimate   =    -923.93662103 Ry
     estimated scf accuracy    <       0.00000019 Ry

     total magnetization       =     0.00 Bohr mag/cell
     absolute magnetization    =     0.00 Bohr mag/cell

     iteration # 13     ecut=    55.00 Ry     beta=0.70
     Davidson diagonalization with overlap
     ethr =  6.56E-11,  avg # of iterations =  3.5

     total cpu time spent up to now is       25.5 secs

     total energy              =    -923.93662128 Ry
     Harris-Foulkes estimate   =    -923.93662121 Ry
     estimated scf accuracy    <       0.00000004 Ry

     total magnetization       =     0.00 Bohr mag/cell
     absolute magnetization    =     0.00 Bohr mag/cell

     iteration # 14     ecut=    55.00 Ry     beta=0.70
     Davidson diagonalization with overlap
     ethr =  1.26E-11,  avg # of iterations =  4.0

     total cpu time spent up to now is       27.0 secs

     total energy              =    -923.93662131 Ry
     Harris-Foulkes estimate   =    -923.93662131 Ry
     estimated scf accuracy    <       0.00000001 Ry

     total magnetization       =    -0.00 Bohr mag/cell
     absolute magnetization    =     0.00 Bohr mag/cell

     iteration # 15     ecut=    55.00 Ry     beta=0.70
     Davidson diagonalization with overlap
     ethr =  3.89E-12,  avg # of iterations =  4.0
 
     Magnetic moment per site:
     atom:    1    charge:    0.8642    magn:   -0.0000    constr:    0.0000
     atom:    2    charge:    0.8627    magn:   -0.0000    constr:    0.0000
     atom:    3    charge:    0.8627    magn:   -0.0000    constr:    0.0000
     atom:    4    charge:    0.8642    magn:   -0.0000    constr:    0.0000
     atom:    5    charge:    0.8656    magn:   -0.0000    constr:    0.0000
     atom:    6    charge:    0.8656    magn:   -0.0000    constr:    0.0000
     atom:    7    charge:    0.8680    magn:   -0.0000    constr:    0.0000
     atom:    8    charge:    0.8651    magn:   -0.0000    constr:    0.0000
     atom:    9    charge:    0.8605    magn:   -0.0000    constr:    0.0000
     atom:   10    charge:    0.8651    magn:   -0.0000    constr:    0.0000
     atom:   11    charge:    0.8680    magn:   -0.0000    constr:    0.0000
     atom:   12    charge:    0.8654    magn:   -0.0000    constr:    0.0000
     atom:   13    charge:    0.8670    magn:   -0.0000    constr:    0.0000
     atom:   14    charge:    0.8710    magn:   -0.0000    constr:    0.0000
     atom:   15    charge:    0.8723    magn:   -0.0000    constr:    0.0000
     atom:   16    charge:    0.8723    magn:   -0.0000    constr:    0.0000
     atom:   17    charge:    0.8710    magn:   -0.0000    constr:    0.0000
     atom:   18    charge:    0.8670    magn:   -0.0000    constr:    0.0000
     atom:   19    charge:    0.8638    magn:   -0.0000    constr:    0.0000
     atom:   20    charge:    0.8598    magn:   -0.0000    constr:    0.0000
     atom:   21    charge:    0.8563    magn:    0.0000    constr:    0.0000
     atom:   22    charge:    0.8563    magn:    0.0000    constr:    0.0000
     atom:   23    charge:    0.8598    magn:   -0.0000    constr:    0.0000
     atom:   24    charge:    0.8639    magn:   -0.0000    constr:    0.0000
     atom:   25    charge:    0.8639    magn:   -0.0000    constr:    0.0000
     atom:   26    charge:    0.8648    magn:   -0.0000    constr:    0.0000
     atom:   27    charge:    0.8674    magn:    0.0000    constr:    0.0000
     atom:   28    charge:    0.8674    magn:    0.0000    constr:    0.0000
     atom:   29    charge:    0.8648    magn:   -0.0000    constr:    0.0000
     atom:   30    charge:    0.8657    magn:   -0.0000    constr:    0.0000
     atom:   31    charge:    0.8639    magn:   -0.0000    constr:    0.0000
     atom:   32    charge:    0.8657    magn:   -0.0000    constr:    0.0000
     atom:   33    charge:    0.8631    magn:   -0.0000    constr:    0.0000
     atom:   34    charge:    0.8700    magn:   -0.0000    constr:    0.0000
     atom:   35    charge:    0.8631    magn:   -0.0000    constr:    0.0000
     atom:   36    charge:    2.7015    magn:    0.0000    constr:    0.0000
     atom:   37    charge:    2.6970    magn:    0.0000    constr:    0.0000
     atom:   38    charge:    2.6978    magn:    0.0000    constr:    0.0000
     atom:   39    charge:    2.6970    magn:    0.0000    constr:    0.0000
     atom:   40    charge:    2.7015    magn:    0.0000    constr:    0.0000
     atom:   41    charge:    2.6969    magn:    0.0000    constr:    0.0000
     atom:   42    charge:    2.7014    magn:    0.0000    constr:    0.0000
     atom:   43    charge:    2.7009    magn:    0.0000    constr:    0.0000
     atom:   44    charge:    2.6971    magn:    0.0000    constr:    0.0000
     atom:   45    charge:    2.6971    magn:    0.0000    constr:    0.0000
     atom:   46    charge:    2.7009    magn:    0.0000    constr:    0.0000
     atom:   47    charge:    2.7014    magn:    0.0000    constr:    0.0000
     atom:   48    charge:    2.7035    magn:    0.0000    constr:    0.0000
     atom:   49    charge:    2.7008    magn:    0.0000    constr:    0.0000
     atom:   50    charge:    2.7036    magn:    0.0000    constr:    0.0000
     atom:   51    charge:    2.7036    magn:    0.0000    constr:    0.0000
     atom:   52    charge:    2.7008    magn:    0.0000    constr:    0.0000
     atom:   53    charge:    2.6991    magn:    0.0000    constr:    0.0000
     atom:   54    charge:    2.6991    magn:    0.0000    constr:    0.0000
     atom:   55    charge:    2.6959    magn:    0.0000    constr:    0.0000
     atom:   56    charge:    2.6812    magn:   -0.0000    constr:    0.0000
     atom:   57    charge:    2.6812    magn:   -0.0000    constr:    0.0000
     atom:   58    charge:    2.6959    magn:    0.0000    constr:    0.0000
     atom:   59    charge:    2.6999    magn:    0.0000    constr:    0.0000
     atom:   60    charge:    2.6957    magn:    0.0000    constr:    0.0000
     atom:   61    charge:    2.6999    magn:    0.0000    constr:    0.0000
     atom:   62    charge:    2.6963    magn:    0.0000    constr:    0.0000
     atom:   63    charge:    2.7064    magn:    0.0000    constr:    0.0000
     atom:   64    charge:    2.6963    magn:    0.0000    constr:    0.0000
     atom:   65    charge:    2.7002    magn:    0.0000    constr:    0.0000
     atom:   66    charge:    2.7000    magn:    0.0000    constr:    0.0000
     atom:   67    charge:    2.7000    magn:    0.0000    constr:    0.0000
     atom:   68    charge:    2.7002    magn:    0.0000    constr:    0.0000
     atom:   69    charge:    2.7021    magn:    0.0000    constr:    0.0000
     atom:   70    charge:    2.7021    magn:    0.0000    constr:    0.0000
     atom:   71    charge:    1.5819    magn:    0.0001    constr:    0.0000
     atom:   72    charge:    1.6610    magn:   -0.0000    constr:    0.0000

     total cpu time spent up to now is       28.6 secs

     End of self-consistent calculation

 ------ SPIN UP ------------


          k = 0.0000 0.0000 0.0000 (144701 PWs)   bands (ev):

   -22.0223 -21.1753 -20.8587 -20.8022 -20.7501 -20.7259 -20.6117 -20.1306
   -19.9935 -19.8084 -19.8015 -19.7554 -19.6598 -19.4897 -19.4831 -19.3611
   -19.3379 -19.3229 -19.0820 -18.7760 -18.5090 -18.4273 -18.3725 -18.3381
   -18.3375 -18.3070 -18.2978 -18.2699 -18.2673 -18.2619 -18.2235 -18.1455
   -18.1233 -17.7345 -17.6518 -15.4494 -13.2218 -12.5464 -12.5356 -12.2353
   -12.0674 -11.7959 -11.7887 -11.7490 -11.7434 -11.7028 -11.6884 -11.6863
   -11.6583 -11.5877 -11.5793 -11.5550 -11.5015 -11.0108 -10.7882 -10.6857
   -10.6160 -10.5676 -10.4954 -10.4301 -10.3943  -9.6794  -9.4479  -9.2327
    -9.2223  -9.1745  -9.1635  -9.1361  -9.1193  -9.0401  -9.0291  -9.0131
    -8.9956  -8.9905  -8.9849  -8.9600  -8.9367  -8.8941  -8.7885  -8.5993
    -8.5077  -8.2260  -8.1989  -8.1532  -8.1238  -8.0660  -8.0025  -7.8528
    -7.8416  -7.7284  -7.6876  -7.6350  -7.6329  -7.5214  -7.5035  -7.3872
    -7.3144  -7.3116  -7.2522  -7.2212  -7.1321  -7.1145  -7.0137  -7.0059
    -6.9901  -6.9466  -6.9000  -6.8431  -6.8350  -6.8228  -6.7934  -6.6940
    -6.4685  -6.3753  -6.2778  -6.2327  -6.2131  -6.1879  -6.0378  -5.9897
    -5.9460  -5.8978  -5.8887  -5.8123  -5.3792  -4.9868  -4.9857  -4.9679
    -4.7930  -4.7688  -4.7367  -4.7236  -4.7053  -4.6898  -4.6602  -4.6560
    -4.6427  -4.5788  -4.5704  -4.5257  -4.4696  -3.9437  -3.6615  -3.0910
     0.3392   1.0420   1.0690   1.1208   1.1744   1.1950   1.4682   1.7202
     1.7875   1.7914   1.8208   1.8361   1.8751   1.8867   1.9069   1.9084
     1.9116   1.9182   1.9390   1.9691   1.9838   1.9860   2.0388   2.0700

     occupation numbers 
     1.0000   1.0000   1.0000   1.0000   1.0000   1.0000   1.0000   1.0000
     1.0000   1.0000   1.0000   1.0000   1.0000   1.0000   1.0000   1.0000
     1.0000   1.0000   1.0000   1.0000   1.0000   1.0000   1.0000   1.0000
     1.0000   1.0000   1.0000   1.0000   1.0000   1.0000   1.0000   1.0000
     1.0000   1.0000   1.0000   1.0000   1.0000   1.0000   1.0000   1.0000
     1.0000   1.0000   1.0000   1.0000   1.0000   1.0000   1.0000   1.0000
     1.0000   1.0000   1.0000   1.0000   1.0000   1.0000   1.0000   1.0000
     1.0000   1.0000   1.0000   1.0000   1.0000   1.0000   1.0000   1.0000
     1.0000   1.0000   1.0000   1.0000   1.0000   1.0000   1.0000   1.0000
     1.0000   1.0000   1.0000   1.0000   1.0000   1.0000   1.0000   1.0000
     1.0000   1.0000   1.0000   1.0000   1.0000   1.0000   1.0000   1.0000
     1.0000   1.0000   1.0000   1.0000   1.0000   1.0000   1.0000   1.0000
     1.0000   1.0000   1.0000   1.0000   1.0000   1.0000   1.0000   1.0000
     1.0000   1.0000   1.0000   1.0000   1.0000   1.0000   1.0000   1.0000
     1.0000   1.0000   1.0000   1.0000   1.0000   1.0000   1.0000   1.0000
     1.0000   1.0000   1.0000   1.0000   1.0000   1.0000   1.0000   1.0000
     1.0000   1.0000   1.0000   1.0000   1.0000   1.0000   1.0000   1.0000
     1.0000   1.0000   1.0000   1.0000   1.0000   1.0000   1.0000   1.0000
     0.0000   0.0000   0.0000   0.0000   0.0000   0.0000   0.0000   0.0000
     0.0000   0.0000   0.0000   0.0000   0.0000   0.0000   0.0000   0.0000
     0.0000   0.0000   0.0000   0.0000   0.0000   0.0000   0.0000   0.0000

 ------ SPIN DOWN ----------


          k = 0.0000 0.0000 0.0000 (144701 PWs)   bands (ev):

   -22.0223 -21.1753 -20.8587 -20.8022 -20.7501 -20.7259 -20.6117 -20.1306
   -19.9935 -19.8084 -19.8015 -19.7554 -19.6598 -19.4897 -19.4831 -19.3611
   -19.3379 -19.3228 -19.0820 -18.7760 -18.5090 -18.4273 -18.3725 -18.3381
   -18.3375 -18.3070 -18.2978 -18.2699 -18.2673 -18.2618 -18.2235 -18.1455
   -18.1232 -17.7345 -17.6518 -15.4494 -13.2218 -12.5464 -12.5356 -12.2353
   -12.0674 -11.7959 -11.7887 -11.7490 -11.7434 -11.7028 -11.6884 -11.6863
   -11.6583 -11.5877 -11.5793 -11.5550 -11.5015 -11.0108 -10.7882 -10.6857
   -10.6160 -10.5676 -10.4954 -10.4301 -10.3943  -9.6794  -9.4479  -9.2327
    -9.2223  -9.1745  -9.1635  -9.1361  -9.1193  -9.0401  -9.0291  -9.0131
    -8.9956  -8.9905  -8.9849  -8.9600  -8.9367  -8.8941  -8.7885  -8.5993
    -8.5076  -8.2260  -8.1989  -8.1532  -8.1238  -8.0660  -8.0025  -7.8528
    -7.8416  -7.7283  -7.6876  -7.6350  -7.6329  -7.5214  -7.5035  -7.3872
    -7.3144  -7.3115  -7.2522  -7.2212  -7.1321  -7.1144  -7.0137  -7.0059
    -6.9901  -6.9466  -6.9000  -6.8431  -6.8350  -6.8228  -6.7934  -6.6940
    -6.4685  -6.3753  -6.2778  -6.2327  -6.2130  -6.1879  -6.0378  -5.9897
    -5.9460  -5.8977  -5.8887  -5.8123  -5.3792  -4.9868  -4.9857  -4.9679
    -4.7930  -4.7688  -4.7367  -4.7236  -4.7053  -4.6898  -4.6602  -4.6560
    -4.6427  -4.5788  -4.5704  -4.5257  -4.4696  -3.9438  -3.6615  -3.0912
     0.3395   1.0420   1.0689   1.1207   1.1744   1.1949   1.4683   1.7202
     1.7875   1.7914   1.8208   1.8361   1.8751   1.8867   1.9069   1.9084
     1.9115   1.9182   1.9389   1.9687   1.9838   1.9860   2.0387   2.0680

     occupation numbers 
     1.0000   1.0000   1.0000   1.0000   1.0000   1.0000   1.0000   1.0000
     1.0000   1.0000   1.0000   1.0000   1.0000   1.0000   1.0000   1.0000
     1.0000   1.0000   1.0000   1.0000   1.0000   1.0000   1.0000   1.0000
     1.0000   1.0000   1.0000   1.0000   1.0000   1.0000   1.0000   1.0000
     1.0000   1.0000   1.0000   1.0000   1.0000   1.0000   1.0000   1.0000
     1.0000   1.0000   1.0000   1.0000   1.0000   1.0000   1.0000   1.0000
     1.0000   1.0000   1.0000   1.0000   1.0000   1.0000   1.0000   1.0000
     1.0000   1.0000   1.0000   1.0000   1.0000   1.0000   1.0000   1.0000
     1.0000   1.0000   1.0000   1.0000   1.0000   1.0000   1.0000   1.0000
     1.0000   1.0000   1.0000   1.0000   1.0000   1.0000   1.0000   1.0000
     1.0000   1.0000   1.0000   1.0000   1.0000   1.0000   1.0000   1.0000
     1.0000   1.0000   1.0000   1.0000   1.0000   1.0000   1.0000   1.0000
     1.0000   1.0000   1.0000   1.0000   1.0000   1.0000   1.0000   1.0000
     1.0000   1.0000   1.0000   1.0000   1.0000   1.0000   1.0000   1.0000
     1.0000   1.0000   1.0000   1.0000   1.0000   1.0000   1.0000   1.0000
     1.0000   1.0000   1.0000   1.0000   1.0000   1.0000   1.0000   1.0000
     1.0000   1.0000   1.0000   1.0000   1.0000   1.0000   1.0000   1.0000
     1.0000   1.0000   1.0000   1.0000   1.0000   1.0000   1.0000   1.0000
     0.0000   0.0000   0.0000   0.0000   0.0000   0.0000   0.0000   0.0000
     0.0000   0.0000   0.0000   0.0000   0.0000   0.0000   0.0000   0.0000
     0.0000   0.0000   0.0000   0.0000   0.0000   0.0000   0.0000   0.0000

     highest occupied, lowest unoccupied level (ev):    -3.0910    0.3392

!    total energy              =    -923.93662132 Ry
     Harris-Foulkes estimate   =    -923.93662133 Ry
     estimated scf accuracy    <          6.1E-09 Ry

     The total energy is the sum of the following terms:

     one-electron contribution =   -6004.59264566 Ry
     hartree contribution      =    3060.47892836 Ry
     xc contribution           =    -264.87330414 Ry
     ewald contribution        =    2285.05040012 Ry

     total magnetization       =     0.00 Bohr mag/cell
     absolute magnetization    =     0.00 Bohr mag/cell

     convergence has been achieved in  15 iterations

     Writing output data file BN.save
 
     init_run     :      2.30s CPU      2.82s WALL (       1 calls)
     electrons    :     25.48s CPU     25.98s WALL (       1 calls)

     Called by init_run:
     wfcinit      :      0.51s CPU      0.54s WALL (       1 calls)
     wfcinit:atom :      0.00s CPU      0.01s WALL (       1 calls)
     wfcinit:wfcr :      0.49s CPU      0.51s WALL (       1 calls)
     potinit      :      0.39s CPU      0.41s WALL (       1 calls)

     Called by electrons:
     c_bands      :     22.85s CPU     23.12s WALL (      15 calls)
     sum_band     :      1.44s CPU      1.47s WALL (      15 calls)
     v_of_rho     :      0.74s CPU      0.75s WALL (      16 calls)
     v_h          :      0.03s CPU      0.03s WALL (      16 calls)
     v_xc         :      0.71s CPU      0.72s WALL (      16 calls)
     mix_rho      :      0.22s CPU      0.22s WALL (      15 calls)

     Called by c_bands:
     init_us_2    :      0.22s CPU      0.23s WALL (      31 calls)
     cegterg      :     21.10s CPU     21.36s WALL (      15 calls)

     Called by sum_band:

     Called by *egterg:
     h_psi        :     10.75s CPU     10.84s WALL (      94 calls)
     g_psi        :      0.05s CPU      0.05s WALL (      78 calls)
     cdiaghg      :      6.51s CPU      6.55s WALL (      93 calls)
     cegterg:over :      1.70s CPU      1.71s WALL (      78 calls)
     cegterg:upda :      1.05s CPU      1.06s WALL (      78 calls)
     cegterg:last :      0.40s CPU      0.40s WALL (      16 calls)

     Called by h_psi:
     h_psi:pot    :     10.56s CPU     10.65s WALL (      94 calls)
     h_psi:calbec :      1.60s CPU      1.61s WALL (      94 calls)
     vloc_psi     :      7.47s CPU      7.54s WALL (      94 calls)
     add_vuspsi   :      1.49s CPU      1.50s WALL (      94 calls)

     General routines
     calbec       :      1.60s CPU      1.61s WALL (      94 calls)
     fft          :      0.56s CPU      0.59s WALL (     333 calls)
     fftw         :      7.99s CPU      8.07s WALL (   18152 calls)
 
     Parallel routines
     fft_scatter  :      4.99s CPU      5.05s WALL (   18485 calls)
 
     PWSCF        :    30.56s CPU        32.54s WALL

 
   This run was terminated on:  22:54:36  10Feb2021            

=------------------------------------------------------------------------------=
   JOB DONE.
=------------------------------------------------------------------------------=
