
     Program PWSCF v.6.1 (svn rev. 13369) starts on  9Oct2019 at  4:57:40 

     This program is part of the open-source Quantum ESPRESSO suite
     for quantum simulation of materials; please cite
         "P. Giannozzi et al., J. Phys.:Condens. Matter 21 395502 (2009);
          URL http://www.quantum-espresso.org", 
     in publications or presentations arising from this work. More details at
     http://www.quantum-espresso.org/quote

     Parallel version (MPI), running on    64 processors
     K-points division:     npool     =       8
     R & G space division:  proc/nbgrp/npool/nimage =       8
     Reading input from relax.in

     Current dimensions of program PWSCF are:
     Max number of different atomic species (ntypx) = 10
     Max number of k-points (npk) =  40000
     Max angular momentum in pseudopotentials (lmaxx) =  3

     Subspace diagonalization in iterative solution of the eigenvalue problem:
     one sub-group per band group will be used
     scalapack distributed-memory algorithm (size of sub-group:  2*  2 procs)

 
     Parallelization info
     --------------------
     sticks:   dense  smooth     PW     G-vecs:    dense   smooth      PW
     Min         777     519    138                67649    36803    5096
     Max         778     520    139                67652    36806    5099
     Sum        6217    4153   1111               541199   294431   40789
 


     bravais-lattice index     =            0
     lattice parameter (alat)  =      19.3984  a.u.
     unit-cell volume          =    8616.2325 (a.u.)^3
     number of atoms/cell      =          120
     number of atomic types    =            4
     number of electrons       =      1196.00
     number of Kohn-Sham states=          718
     kinetic-energy cutoff     =      40.0000  Ry
     charge density cutoff     =     240.0000  Ry
     convergence threshold     =      1.0E-07
     mixing beta               =       0.3000
     number of iterations used =            8  plain     mixing
     Exchange-correlation      =  SLA  PW   PBX  PBC ( 1  4  3  4 0 0)
     nstep                     =           50


     celldm(1)=  19.398401  celldm(2)=   0.000000  celldm(3)=   0.000000
     celldm(4)=   0.000000  celldm(5)=   0.000000  celldm(6)=   0.000000

     crystal axes: (cart. coord. in units of alat)
               a(1) = (   1.000000   0.000000   0.000000 )  
               a(2) = (  -0.500000   0.866025   0.000000 )  
               a(3) = (   0.000000   0.000000   1.362978 )  

     reciprocal axes: (cart. coord. in units 2 pi/alat)
               b(1) = (  1.000000  0.577350  0.000000 )  
               b(2) = (  0.000000  1.154700  0.000000 )  
               b(3) = (  0.000000  0.000000  0.733687 )  


     PseudoPot. # 1 for O  read from file:
     /home/tjsmart/Pseudo/o_pbe_v1.2.uspp.F.UPF
     MD5 check sum: 734c27235a0248c51dbae37a1fbe46ec
     Pseudo is Ultrasoft + core correction, Zval =  6.0
     Generated by new atomic code, or converted to UPF format
     Using radial grid of  737 points,  5 beta functions with: 
                l(1) =   0
                l(2) =   0
                l(3) =   1
                l(4) =   1
                l(5) =   2
     Q(r) pseudized with  8 coefficients,  rinner =    0.900   0.900   0.900
                                                       0.900   0.900

     PseudoPot. # 2 for Fe read from file:
     /home/tjsmart/Pseudo/fe_pbe_v1.5.uspp.F.UPF
     MD5 check sum: a130daea23fe5165f5d574ae7f82ed95
     Pseudo is Ultrasoft + core correction, Zval = 16.0
     Generated by new atomic code, or converted to UPF format
     Using radial grid of  861 points,  6 beta functions with: 
                l(1) =   0
                l(2) =   0
                l(3) =   1
                l(4) =   1
                l(5) =   2
                l(6) =   2
     Q(r) pseudized with  8 coefficients,  rinner =    1.000   1.000   1.000
                                                       1.000   1.000

     PseudoPot. # 3 for Fe read from file:
     /home/tjsmart/Pseudo/fe_pbe_v1.5.uspp.F.UPF
     MD5 check sum: a130daea23fe5165f5d574ae7f82ed95
     Pseudo is Ultrasoft + core correction, Zval = 16.0
     Generated by new atomic code, or converted to UPF format
     Using radial grid of  861 points,  6 beta functions with: 
                l(1) =   0
                l(2) =   0
                l(3) =   1
                l(4) =   1
                l(5) =   2
                l(6) =   2
     Q(r) pseudized with  8 coefficients,  rinner =    1.000   1.000   1.000
                                                       1.000   1.000

     PseudoPot. # 4 for Sn read from file:
     /home/tjsmart/Pseudo/sn_pbe_v1.4.uspp.F.UPF
     MD5 check sum: 469debedee59599fedebd795477fea03
     Pseudo is Ultrasoft + core correction, Zval = 14.0
     Generated by new atomic code, or converted to UPF format
     Using radial grid of  891 points,  6 beta functions with: 
                l(1) =   0
                l(2) =   0
                l(3) =   1
                l(4) =   1
                l(5) =   2
                l(6) =   2
     Q(r) pseudized with  8 coefficients,  rinner =    1.350   1.350   1.350
                                                       1.350   1.350

     atomic species   valence    mass     pseudopotential
        O              6.00     1.00000     O ( 1.00)
        Fe1           16.00     1.00000     Fe( 1.00)
        Fe2           16.00     1.00000     Fe( 1.00)
        Sn            14.00     1.00000     Sn( 1.00)

     Starting magnetic structure 
     atomic species   magnetization
        O            0.000
        Fe1         -0.500
        Fe2          0.500
        Sn           0.000


     Simplified LDA+U calculation (l_max = 2) with parameters (eV):
     atomic species    L          U    alpha       J0     beta
        Fe1            2     4.3000   0.0000   0.0000   0.0000
        Fe2            2     4.3000   0.0000   0.0000   0.0000



     No symmetry found



   Cartesian axes

     site n.     atom                  positions (alat units)
         1           O   tau(   1) = (   0.1522350   0.2883378   1.2502519  )
         2           O   tau(   2) = (  -0.0778730   0.4202535   1.2510732  )
         3           O   tau(   3) = (   0.3261335   0.2762360   0.1127239  )
         4           O   tau(   4) = (   0.3260269   0.0120802   0.1132792  )
         5           O   tau(   5) = (   0.0975537   0.1440961   0.1135513  )
         6           O   tau(   6) = (  -0.0765479   0.1557353   1.2499354  )
         7           O   tau(   7) = (   0.1549626   0.0010534   0.3407746  )
         8           O   tau(   8) = (  -0.0783481   0.1294738   0.3400417  )
         9           O   tau(   9) = (   0.0713941   0.4207374   0.5681897  )
        10           O   tau(  10) = (   0.0752473   0.1561287   0.5667344  )
        11           O   tau(  11) = (  -0.1524948   0.2909021   0.5667820  )
        12           O   tau(  12) = (   0.1698646   0.2987734   0.3405356  )
        13           O   tau(  13) = (   0.4020689   0.1446016   0.7966759  )
        14           O   tau(  14) = (   0.1721988   0.2705454   0.7939438  )
        15           O   tau(  15) = (   0.0762825   0.1319580   1.0237012  )
        16           O   tau(  16) = (  -0.1740766   0.3010867   1.0238659  )
        17           O   tau(  17) = (   0.3469948   0.0001223   1.0233823  )
        18           O   tau(  18) = (   0.1732759   0.0115782   0.7962203  )
        19           Fe1 tau(  19) = (  -0.0004823   0.2873226   0.0281130  )
        20           Fe2 tau(  20) = (   0.0009578  -0.0012676   0.1973312  )
        21           Fe1 tau(  21) = (   0.2500156   0.1442216   1.3333663  )
        22           Fe2 tau(  22) = (   0.0001118  -0.0004957   1.1657788  )
        23           Fe1 tau(  23) = (   0.0004015  -0.0030474   0.4818547  )
        24           Fe2 tau(  24) = (   0.2469746   0.1414555   0.6550285  )
        25           Fe1 tau(  25) = (  -0.0061146   0.2839059   0.4244889  )
        26           Fe2 tau(  26) = (   0.2504813   0.1430470   0.2545797  )
        27           Fe1 tau(  27) = (   0.2504679   0.1471799   0.9398971  )
        28           Fe2 tau(  28) = (  -0.0003802   0.2887525   1.1087322  )
        29           Fe1 tau(  29) = (   0.0020371   0.0022963   0.8836240  )
        30           Fe2 tau(  30) = (   0.0007778   0.2862265   0.7129790  )
        31           O   tau(  31) = (   0.6527654   0.2888459   1.2498964  )
        32           O   tau(  32) = (   0.4236990   0.4207884   1.2499105  )
        33           O   tau(  33) = (   0.8261580   0.2760177   0.1127038  )
        34           O   tau(  34) = (   0.8260679   0.0115621   0.1138798  )
        35           O   tau(  35) = (   0.5970925   0.1447550   0.1117679  )
        36           O   tau(  36) = (   0.4245755   0.1553427   1.2513978  )
        37           O   tau(  37) = (   0.6451880   0.0079425   0.3381218  )
        38           O   tau(  38) = (   0.4216621   0.1331088   0.3407583  )
        39           O   tau(  39) = (   0.5786355   0.4184397   0.5657113  )
        40           O   tau(  40) = (   0.5760872   0.1568707   0.5679558  )
        41           O   tau(  41) = (   0.3487559   0.2859877   0.5686353  )
        42           O   tau(  42) = (   0.6750995   0.3013627   0.3385252  )
        43           O   tau(  43) = (   0.9020317   0.1449454   0.7977919  )
        44           O   tau(  44) = (   0.6748960   0.2779898   0.7959600  )
        45           O   tau(  45) = (   0.5766206   0.1316884   1.0237583  )
        46           O   tau(  46) = (   0.3279224   0.2964028   1.0281962  )
        47           O   tau(  47) = (   0.8471722   0.0000340   1.0228040  )
        48           O   tau(  48) = (   0.6701738   0.0183227   0.7960771  )
        49           Fe1 tau(  49) = (   0.4999752   0.2889636   0.0281597  )
        50           Fe2 tau(  50) = (   0.5000398   0.0003595   0.1970597  )
        51           Fe1 tau(  51) = (   0.7495498   0.1442101   1.3333355  )
        52           Fe2 tau(  52) = (   0.5002193  -0.0002394   1.1660958  )
        53           Fe1 tau(  53) = (   0.4991013   0.0002131   0.4821441  )
        54           Fe2 tau(  54) = (   0.7492237   0.1530270   0.6535103  )
        55           Fe1 tau(  55) = (   0.5057056   0.2844452   0.4246470  )
        56           Fe2 tau(  56) = (   0.7491465   0.1442874   0.2529798  )
        57           Fe1 tau(  57) = (   0.7503486   0.1455377   0.9406757  )
        58           Fe2 tau(  58) = (   0.5003177   0.2880106   1.1083158  )
        59           Fe1 tau(  59) = (   0.4954650  -0.0002940   0.8835048  )
        60           Fe2 tau(  60) = (   0.4999851   0.2886438   0.7139088  )
        61           O   tau(  61) = (  -0.0973295   0.7213026   1.2493868  )
        62           O   tau(  62) = (  -0.3259748   0.8537082   1.2491818  )
        63           O   tau(  63) = (   0.0762836   0.7088508   0.1137879  )
        64           O   tau(  64) = (   0.0750221   0.4446578   0.1107604  )
        65           O   tau(  65) = (  -0.1524619   0.5773908   0.1131184  )
        66           O   tau(  66) = (  -0.3261739   0.5898318   1.2491924  )
        67           O   tau(  67) = (  -0.0975590   0.4318085   0.3391771  )
        68           O   tau(  68) = (  -0.3246294   0.5650873   0.3394289  )
        69           O   tau(  69) = (  -0.1738330   0.8539704   0.5680290  )
        70           O   tau(  70) = (  -0.1759611   0.5897906   0.5673206  )
        71           O   tau(  71) = (  -0.4013927   0.7215238   0.5684469  )
        72           O   tau(  72) = (  -0.0762335   0.7331097   0.3406815  )
        73           O   tau(  73) = (   0.1458099   0.5808500   0.7922350  )
        74           O   tau(  74) = (  -0.0792713   0.7107646   0.7970490  )
        75           O   tau(  75) = (  -0.1735234   0.5651750   1.0230588  )
        76           O   tau(  76) = (  -0.4242278   0.7331793   1.0226581  )
        77           O   tau(  77) = (   0.0929761   0.4340609   1.0289056  )
        78           O   tau(  78) = (  -0.0759943   0.4442663   0.7964586  )
        79           Fe1 tau(  79) = (  -0.2492997   0.7216431   0.0278820  )
        80           Fe2 tau(  80) = (  -0.2498880   0.4326677   0.1959585  )
        81           Fe1 tau(  81) = (   0.0003478   0.5767831   1.3327009  )
        82           Fe2 tau(  82) = (  -0.2501487   0.4331623   1.1655632  )
        83           Fe1 tau(  83) = (  -0.2493069   0.4349527   0.4799681  )
        84           Fe2 tau(  84) = (  -0.0074086   0.5779998   0.6563154  )
        85           Fe1 tau(  85) = (  -0.2498117   0.7224987   0.4248693  )
        86           Fe2 tau(  86) = (  -0.0018635   0.5769134   0.2545300  )
        87           Fe1 tau(  87) = (   0.0019042   0.5754363   0.9408252  )
        88           Fe2 tau(  88) = (  -0.2506053   0.7213905   1.1064716  )
        89           Fe1 tau(  89) = (  -0.2489378   0.4341942   0.8817434  )
        90           Fe2 tau(  90) = (  -0.2502071   0.7238431   0.7109075  )
        91           O   tau(  91) = (   0.4027510   0.7222966   1.2502700  )
        92           O   tau(  92) = (   0.1737216   0.8535413   1.2499725  )
        93           O   tau(  93) = (   0.5774909   0.7089579   0.1117085  )
        94           O   tau(  94) = (   0.5762789   0.4451429   0.1131751  )
        95           O   tau(  95) = (   0.3484222   0.5777215   0.1124939  )
        96           O   tau(  96) = (   0.1743722   0.5895694   1.2499580  )
        97           O   tau(  97) = (   0.4042620   0.4297931   0.3406276  )
        98           O   tau(  98) = (   0.1744878   0.5592005   0.3342850  )
        99           O   tau(  99) = (   0.3280363   0.8614700   0.5725262  )
       100           O   tau( 100) = (   0.3328037   0.5918152   0.5688749  )
       101           O   tau( 101) = (   0.0924602   0.7200850   0.5687604  )
       102           O   tau( 102) = (   0.4347239   0.7339884   0.3385814  )
       103           O   tau( 103) = (   0.6562712   0.5783502   0.7961514  )
       104           O   tau( 104) = (   0.4274734   0.7101168   0.7958639  )
       105           O   tau( 105) = (   0.3265888   0.5662229   1.0240940  )
       106           O   tau( 106) = (   0.0764588   0.7340897   1.0227872  )
       107           O   tau( 107) = (   0.5981326   0.4327161   1.0236916  )
       108           O   tau( 108) = (   0.4332849   0.4472854   0.7937073  )
       109           Fe1 tau( 109) = (   0.2497144   0.7218905   0.0288489  )
       110           Fe2 tau( 110) = (   0.2487610   0.4336428   0.1892224  )
       111           Fe1 tau( 111) = (   0.5001080   0.5774553   1.3329473  )
       112           Fe2 tau( 112) = (   0.2499571   0.4321429   1.1622207  )
       113           Sn  tau( 113) = (   0.2488887   0.4339290   0.4793430  )
       114           Fe2 tau( 114) = (   0.5108380   0.5725716   0.6558424  )
       115           Fe1 tau( 115) = (   0.2516701   0.7312871   0.4125877  )
       116           Fe2 tau( 116) = (   0.5023483   0.5780483   0.2544176  )
       117           Fe1 tau( 117) = (   0.4981991   0.5738548   0.9397604  )
       118           Fe2 tau( 118) = (   0.2501969   0.7211189   1.1080032  )
       119           Fe1 tau( 119) = (   0.2476919   0.4305667   0.8799138  )
       120           Sn  tau( 120) = (   0.2494780   0.7248237   0.7058257  )

     number of k points=     8  Methfessel-Paxton smearing, width (Ry)=  0.0050
                       cart. coord. in units 2pi/alat
        k(    1) = (   0.0000000   0.0000000   0.0000000), wk =   0.1250000
        k(    2) = (   0.0000000   0.0000000  -0.3668437), wk =   0.1250000
        k(    3) = (   0.0000000  -0.5773502   0.0000000), wk =   0.1250000
        k(    4) = (   0.0000000  -0.5773502  -0.3668437), wk =   0.1250000
        k(    5) = (   0.5000000  -0.2886751   0.0000000), wk =   0.1250000
        k(    6) = (  -0.5000000  -0.2886751   0.0000000), wk =   0.1250000
        k(    7) = (   0.5000000  -0.2886751  -0.3668437), wk =   0.1250000
        k(    8) = (  -0.5000000  -0.2886751  -0.3668437), wk =   0.1250000

     Dense  grid:   541199 G-vectors     FFT dimensions: (  96,  96, 135)

     Smooth grid:   294431 G-vectors     FFT dimensions: (  80,  80, 108)

     Estimated max dynamical RAM per process >     846.99MB

     Estimated total allocated dynamical RAM >   54207.34MB
     Generating pointlists ...
     new r_m :   0.0782 (alat units)  1.5177 (a.u.) for type    1
     new r_m :   0.0783 (alat units)  1.5191 (a.u.) for type    2
     new r_m :   0.0782 (alat units)  1.5177 (a.u.) for type    3
     new r_m :   0.0814 (alat units)  1.5791 (a.u.) for type    4

     Check: negative/imaginary core charge=   -0.000024    0.000000

     Initial potential from superposition of free atoms

     starting charge 1147.99954, renormalised to 1196.00000
     Number of +U iterations with fixed ns =  0
     Starting occupations:
 --- enter write_ns ---
 LDA+U parameters:
U( 2)     =  4.30000000
alpha( 2) =  0.00000000
U( 3)     =  4.30000000
alpha( 3) =  0.00000000
atom   19   Tr[ns(na)] (up, down, total) =   1.00000  5.00000  6.00000
   spin  1
    eigenvalues: 
  0.200  0.200  0.200  0.200  0.200
    eigenvectors:
  1.000  0.000  0.000  0.000  0.000
  0.000  1.000  0.000  0.000  0.000
  0.000  0.000  1.000  0.000  0.000
  0.000  0.000  0.000  1.000  0.000
  0.000  0.000  0.000  0.000  1.000
    occupations:
  0.200  0.000  0.000  0.000  0.000
  0.000  0.200  0.000  0.000  0.000
  0.000  0.000  0.200  0.000  0.000
  0.000  0.000  0.000  0.200  0.000
  0.000  0.000  0.000  0.000  0.200
   spin  2
    eigenvalues: 
  1.000  1.000  1.000  1.000  1.000
    eigenvectors:
  1.000  0.000  0.000  0.000  0.000
  0.000  1.000  0.000  0.000  0.000
  0.000  0.000  1.000  0.000  0.000
  0.000  0.000  0.000  1.000  0.000
  0.000  0.000  0.000  0.000  1.000
    occupations:
  1.000  0.000  0.000  0.000  0.000
  0.000  1.000  0.000  0.000  0.000
  0.000  0.000  1.000  0.000  0.000
  0.000  0.000  0.000  1.000  0.000
  0.000  0.000  0.000  0.000  1.000
atomic mag. moment =    -4.000000
atom   20   Tr[ns(na)] (up, down, total) =   5.00000  1.00000  6.00000
   spin  1
    eigenvalues: 
  1.000  1.000  1.000  1.000  1.000
    eigenvectors:
  1.000  0.000  0.000  0.000  0.000
  0.000  1.000  0.000  0.000  0.000
  0.000  0.000  1.000  0.000  0.000
  0.000  0.000  0.000  1.000  0.000
  0.000  0.000  0.000  0.000  1.000
    occupations:
  1.000  0.000  0.000  0.000  0.000
  0.000  1.000  0.000  0.000  0.000
  0.000  0.000  1.000  0.000  0.000
  0.000  0.000  0.000  1.000  0.000
  0.000  0.000  0.000  0.000  1.000
   spin  2
    eigenvalues: 
  0.200  0.200  0.200  0.200  0.200
    eigenvectors:
  1.000  0.000  0.000  0.000  0.000
  0.000  1.000  0.000  0.000  0.000
  0.000  0.000  1.000  0.000  0.000
  0.000  0.000  0.000  1.000  0.000
  0.000  0.000  0.000  0.000  1.000
    occupations:
  0.200  0.000  0.000  0.000  0.000
  0.000  0.200  0.000  0.000  0.000
  0.000  0.000  0.200  0.000  0.000
  0.000  0.000  0.000  0.200  0.000
  0.000  0.000  0.000  0.000  0.200
atomic mag. moment =     4.000000
atom   21   Tr[ns(na)] (up, down, total) =   1.00000  5.00000  6.00000
   spin  1
    eigenvalues: 
  0.200  0.200  0.200  0.200  0.200
    eigenvectors:
  1.000  0.000  0.000  0.000  0.000
  0.000  1.000  0.000  0.000  0.000
  0.000  0.000  1.000  0.000  0.000
  0.000  0.000  0.000  1.000  0.000
  0.000  0.000  0.000  0.000  1.000
    occupations:
  0.200  0.000  0.000  0.000  0.000
  0.000  0.200  0.000  0.000  0.000
  0.000  0.000  0.200  0.000  0.000
  0.000  0.000  0.000  0.200  0.000
  0.000  0.000  0.000  0.000  0.200
   spin  2
    eigenvalues: 
  1.000  1.000  1.000  1.000  1.000
    eigenvectors:
  1.000  0.000  0.000  0.000  0.000
  0.000  1.000  0.000  0.000  0.000
  0.000  0.000  1.000  0.000  0.000
  0.000  0.000  0.000  1.000  0.000
  0.000  0.000  0.000  0.000  1.000
    occupations:
  1.000  0.000  0.000  0.000  0.000
  0.000  1.000  0.000  0.000  0.000
  0.000  0.000  1.000  0.000  0.000
  0.000  0.000  0.000  1.000  0.000
  0.000  0.000  0.000  0.000  1.000
atomic mag. moment =    -4.000000
atom   22   Tr[ns(na)] (up, down, total) =   5.00000  1.00000  6.00000
   spin  1
    eigenvalues: 
  1.000  1.000  1.000  1.000  1.000
    eigenvectors:
  1.000  0.000  0.000  0.000  0.000
  0.000  1.000  0.000  0.000  0.000
  0.000  0.000  1.000  0.000  0.000
  0.000  0.000  0.000  1.000  0.000
  0.000  0.000  0.000  0.000  1.000
    occupations:
  1.000  0.000  0.000  0.000  0.000
  0.000  1.000  0.000  0.000  0.000
  0.000  0.000  1.000  0.000  0.000
  0.000  0.000  0.000  1.000  0.000
  0.000  0.000  0.000  0.000  1.000
   spin  2
    eigenvalues: 
  0.200  0.200  0.200  0.200  0.200
    eigenvectors:
  1.000  0.000  0.000  0.000  0.000
  0.000  1.000  0.000  0.000  0.000
  0.000  0.000  1.000  0.000  0.000
  0.000  0.000  0.000  1.000  0.000
  0.000  0.000  0.000  0.000  1.000
    occupations:
  0.200  0.000  0.000  0.000  0.000
  0.000  0.200  0.000  0.000  0.000
  0.000  0.000  0.200  0.000  0.000
  0.000  0.000  0.000  0.200  0.000
  0.000  0.000  0.000  0.000  0.200
atomic mag. moment =     4.000000
atom   23   Tr[ns(na)] (up, down, total) =   1.00000  5.00000  6.00000
   spin  1
    eigenvalues: 
  0.200  0.200  0.200  0.200  0.200
    eigenvectors:
  1.000  0.000  0.000  0.000  0.000
  0.000  1.000  0.000  0.000  0.000
  0.000  0.000  1.000  0.000  0.000
  0.000  0.000  0.000  1.000  0.000
  0.000  0.000  0.000  0.000  1.000
    occupations:
  0.200  0.000  0.000  0.000  0.000
  0.000  0.200  0.000  0.000  0.000
  0.000  0.000  0.200  0.000  0.000
  0.000  0.000  0.000  0.200  0.000
  0.000  0.000  0.000  0.000  0.200
   spin  2
    eigenvalues: 
  1.000  1.000  1.000  1.000  1.000
    eigenvectors:
  1.000  0.000  0.000  0.000  0.000
  0.000  1.000  0.000  0.000  0.000
  0.000  0.000  1.000  0.000  0.000
  0.000  0.000  0.000  1.000  0.000
  0.000  0.000  0.000  0.000  1.000
    occupations:
  1.000  0.000  0.000  0.000  0.000
  0.000  1.000  0.000  0.000  0.000
  0.000  0.000  1.000  0.000  0.000
  0.000  0.000  0.000  1.000  0.000
  0.000  0.000  0.000  0.000  1.000
atomic mag. moment =    -4.000000
atom   24   Tr[ns(na)] (up, down, total) =   5.00000  1.00000  6.00000
   spin  1
    eigenvalues: 
  1.000  1.000  1.000  1.000  1.000
    eigenvectors:
  1.000  0.000  0.000  0.000  0.000
  0.000  1.000  0.000  0.000  0.000
  0.000  0.000  1.000  0.000  0.000
  0.000  0.000  0.000  1.000  0.000
  0.000  0.000  0.000  0.000  1.000
    occupations:
  1.000  0.000  0.000  0.000  0.000
  0.000  1.000  0.000  0.000  0.000
  0.000  0.000  1.000  0.000  0.000
  0.000  0.000  0.000  1.000  0.000
  0.000  0.000  0.000  0.000  1.000
   spin  2
    eigenvalues: 
  0.200  0.200  0.200  0.200  0.200
    eigenvectors:
  1.000  0.000  0.000  0.000  0.000
  0.000  1.000  0.000  0.000  0.000
  0.000  0.000  1.000  0.000  0.000
  0.000  0.000  0.000  1.000  0.000
  0.000  0.000  0.000  0.000  1.000
    occupations:
  0.200  0.000  0.000  0.000  0.000
  0.000  0.200  0.000  0.000  0.000
  0.000  0.000  0.200  0.000  0.000
  0.000  0.000  0.000  0.200  0.000
  0.000  0.000  0.000  0.000  0.200
atomic mag. moment =     4.000000
atom   25   Tr[ns(na)] (up, down, total) =   1.00000  5.00000  6.00000
   spin  1
    eigenvalues: 
  0.200  0.200  0.200  0.200  0.200
    eigenvectors:
  1.000  0.000  0.000  0.000  0.000
  0.000  1.000  0.000  0.000  0.000
  0.000  0.000  1.000  0.000  0.000
  0.000  0.000  0.000  1.000  0.000
  0.000  0.000  0.000  0.000  1.000
    occupations:
  0.200  0.000  0.000  0.000  0.000
  0.000  0.200  0.000  0.000  0.000
  0.000  0.000  0.200  0.000  0.000
  0.000  0.000  0.000  0.200  0.000
  0.000  0.000  0.000  0.000  0.200
   spin  2
    eigenvalues: 
  1.000  1.000  1.000  1.000  1.000
    eigenvectors:
  1.000  0.000  0.000  0.000  0.000
  0.000  1.000  0.000  0.000  0.000
  0.000  0.000  1.000  0.000  0.000
  0.000  0.000  0.000  1.000  0.000
  0.000  0.000  0.000  0.000  1.000
    occupations:
  1.000  0.000  0.000  0.000  0.000
  0.000  1.000  0.000  0.000  0.000
  0.000  0.000  1.000  0.000  0.000
  0.000  0.000  0.000  1.000  0.000
  0.000  0.000  0.000  0.000  1.000
atomic mag. moment =    -4.000000
atom   26   Tr[ns(na)] (up, down, total) =   5.00000  1.00000  6.00000
   spin  1
    eigenvalues: 
  1.000  1.000  1.000  1.000  1.000
    eigenvectors:
  1.000  0.000  0.000  0.000  0.000
  0.000  1.000  0.000  0.000  0.000
  0.000  0.000  1.000  0.000  0.000
  0.000  0.000  0.000  1.000  0.000
  0.000  0.000  0.000  0.000  1.000
    occupations:
  1.000  0.000  0.000  0.000  0.000
  0.000  1.000  0.000  0.000  0.000
  0.000  0.000  1.000  0.000  0.000
  0.000  0.000  0.000  1.000  0.000
  0.000  0.000  0.000  0.000  1.000
   spin  2
    eigenvalues: 
  0.200  0.200  0.200  0.200  0.200
    eigenvectors:
  1.000  0.000  0.000  0.000  0.000
  0.000  1.000  0.000  0.000  0.000
  0.000  0.000  1.000  0.000  0.000
  0.000  0.000  0.000  1.000  0.000
  0.000  0.000  0.000  0.000  1.000
    occupations:
  0.200  0.000  0.000  0.000  0.000
  0.000  0.200  0.000  0.000  0.000
  0.000  0.000  0.200  0.000  0.000
  0.000  0.000  0.000  0.200  0.000
  0.000  0.000  0.000  0.000  0.200
atomic mag. moment =     4.000000
atom   27   Tr[ns(na)] (up, down, total) =   1.00000  5.00000  6.00000
   spin  1
    eigenvalues: 
  0.200  0.200  0.200  0.200  0.200
    eigenvectors:
  1.000  0.000  0.000  0.000  0.000
  0.000  1.000  0.000  0.000  0.000
  0.000  0.000  1.000  0.000  0.000
  0.000  0.000  0.000  1.000  0.000
  0.000  0.000  0.000  0.000  1.000
    occupations:
  0.200  0.000  0.000  0.000  0.000
  0.000  0.200  0.000  0.000  0.000
  0.000  0.000  0.200  0.000  0.000
  0.000  0.000  0.000  0.200  0.000
  0.000  0.000  0.000  0.000  0.200
   spin  2
    eigenvalues: 
  1.000  1.000  1.000  1.000  1.000
    eigenvectors:
  1.000  0.000  0.000  0.000  0.000
  0.000  1.000  0.000  0.000  0.000
  0.000  0.000  1.000  0.000  0.000
  0.000  0.000  0.000  1.000  0.000
  0.000  0.000  0.000  0.000  1.000
    occupations:
  1.000  0.000  0.000  0.000  0.000
  0.000  1.000  0.000  0.000  0.000
  0.000  0.000  1.000  0.000  0.000
  0.000  0.000  0.000  1.000  0.000
  0.000  0.000  0.000  0.000  1.000
atomic mag. moment =    -4.000000
atom   28   Tr[ns(na)] (up, down, total) =   5.00000  1.00000  6.00000
   spin  1
    eigenvalues: 
  1.000  1.000  1.000  1.000  1.000
    eigenvectors:
  1.000  0.000  0.000  0.000  0.000
  0.000  1.000  0.000  0.000  0.000
  0.000  0.000  1.000  0.000  0.000
  0.000  0.000  0.000  1.000  0.000
  0.000  0.000  0.000  0.000  1.000
    occupations:
  1.000  0.000  0.000  0.000  0.000
  0.000  1.000  0.000  0.000  0.000
  0.000  0.000  1.000  0.000  0.000
  0.000  0.000  0.000  1.000  0.000
  0.000  0.000  0.000  0.000  1.000
   spin  2
    eigenvalues: 
  0.200  0.200  0.200  0.200  0.200
    eigenvectors:
  1.000  0.000  0.000  0.000  0.000
  0.000  1.000  0.000  0.000  0.000
  0.000  0.000  1.000  0.000  0.000
  0.000  0.000  0.000  1.000  0.000
  0.000  0.000  0.000  0.000  1.000
    occupations:
  0.200  0.000  0.000  0.000  0.000
  0.000  0.200  0.000  0.000  0.000
  0.000  0.000  0.200  0.000  0.000
  0.000  0.000  0.000  0.200  0.000
  0.000  0.000  0.000  0.000  0.200
atomic mag. moment =     4.000000
atom   29   Tr[ns(na)] (up, down, total) =   1.00000  5.00000  6.00000
   spin  1
    eigenvalues: 
  0.200  0.200  0.200  0.200  0.200
    eigenvectors:
  1.000  0.000  0.000  0.000  0.000
  0.000  1.000  0.000  0.000  0.000
  0.000  0.000  1.000  0.000  0.000
  0.000  0.000  0.000  1.000  0.000
  0.000  0.000  0.000  0.000  1.000
    occupations:
  0.200  0.000  0.000  0.000  0.000
  0.000  0.200  0.000  0.000  0.000
  0.000  0.000  0.200  0.000  0.000
  0.000  0.000  0.000  0.200  0.000
  0.000  0.000  0.000  0.000  0.200
   spin  2
    eigenvalues: 
  1.000  1.000  1.000  1.000  1.000
    eigenvectors:
  1.000  0.000  0.000  0.000  0.000
  0.000  1.000  0.000  0.000  0.000
  0.000  0.000  1.000  0.000  0.000
  0.000  0.000  0.000  1.000  0.000
  0.000  0.000  0.000  0.000  1.000
    occupations:
  1.000  0.000  0.000  0.000  0.000
  0.000  1.000  0.000  0.000  0.000
  0.000  0.000  1.000  0.000  0.000
  0.000  0.000  0.000  1.000  0.000
  0.000  0.000  0.000  0.000  1.000
atomic mag. moment =    -4.000000
atom   30   Tr[ns(na)] (up, down, total) =   5.00000  1.00000  6.00000
   spin  1
    eigenvalues: 
  1.000  1.000  1.000  1.000  1.000
    eigenvectors:
  1.000  0.000  0.000  0.000  0.000
  0.000  1.000  0.000  0.000  0.000
  0.000  0.000  1.000  0.000  0.000
  0.000  0.000  0.000  1.000  0.000
  0.000  0.000  0.000  0.000  1.000
    occupations:
  1.000  0.000  0.000  0.000  0.000
  0.000  1.000  0.000  0.000  0.000
  0.000  0.000  1.000  0.000  0.000
  0.000  0.000  0.000  1.000  0.000
  0.000  0.000  0.000  0.000  1.000
   spin  2
    eigenvalues: 
  0.200  0.200  0.200  0.200  0.200
    eigenvectors:
  1.000  0.000  0.000  0.000  0.000
  0.000  1.000  0.000  0.000  0.000
  0.000  0.000  1.000  0.000  0.000
  0.000  0.000  0.000  1.000  0.000
  0.000  0.000  0.000  0.000  1.000
    occupations:
  0.200  0.000  0.000  0.000  0.000
  0.000  0.200  0.000  0.000  0.000
  0.000  0.000  0.200  0.000  0.000
  0.000  0.000  0.000  0.200  0.000
  0.000  0.000  0.000  0.000  0.200
atomic mag. moment =     4.000000
atom   49   Tr[ns(na)] (up, down, total) =   1.00000  5.00000  6.00000
   spin  1
    eigenvalues: 
  0.200  0.200  0.200  0.200  0.200
    eigenvectors:
  1.000  0.000  0.000  0.000  0.000
  0.000  1.000  0.000  0.000  0.000
  0.000  0.000  1.000  0.000  0.000
  0.000  0.000  0.000  1.000  0.000
  0.000  0.000  0.000  0.000  1.000
    occupations:
  0.200  0.000  0.000  0.000  0.000
  0.000  0.200  0.000  0.000  0.000
  0.000  0.000  0.200  0.000  0.000
  0.000  0.000  0.000  0.200  0.000
  0.000  0.000  0.000  0.000  0.200
   spin  2
    eigenvalues: 
  1.000  1.000  1.000  1.000  1.000
    eigenvectors:
  1.000  0.000  0.000  0.000  0.000
  0.000  1.000  0.000  0.000  0.000
  0.000  0.000  1.000  0.000  0.000
  0.000  0.000  0.000  1.000  0.000
  0.000  0.000  0.000  0.000  1.000
    occupations:
  1.000  0.000  0.000  0.000  0.000
  0.000  1.000  0.000  0.000  0.000
  0.000  0.000  1.000  0.000  0.000
  0.000  0.000  0.000  1.000  0.000
  0.000  0.000  0.000  0.000  1.000
atomic mag. moment =    -4.000000
atom   50   Tr[ns(na)] (up, down, total) =   5.00000  1.00000  6.00000
   spin  1
    eigenvalues: 
  1.000  1.000  1.000  1.000  1.000
    eigenvectors:
  1.000  0.000  0.000  0.000  0.000
  0.000  1.000  0.000  0.000  0.000
  0.000  0.000  1.000  0.000  0.000
  0.000  0.000  0.000  1.000  0.000
  0.000  0.000  0.000  0.000  1.000
    occupations:
  1.000  0.000  0.000  0.000  0.000
  0.000  1.000  0.000  0.000  0.000
  0.000  0.000  1.000  0.000  0.000
  0.000  0.000  0.000  1.000  0.000
  0.000  0.000  0.000  0.000  1.000
   spin  2
    eigenvalues: 
  0.200  0.200  0.200  0.200  0.200
    eigenvectors:
  1.000  0.000  0.000  0.000  0.000
  0.000  1.000  0.000  0.000  0.000
  0.000  0.000  1.000  0.000  0.000
  0.000  0.000  0.000  1.000  0.000
  0.000  0.000  0.000  0.000  1.000
    occupations:
  0.200  0.000  0.000  0.000  0.000
  0.000  0.200  0.000  0.000  0.000
  0.000  0.000  0.200  0.000  0.000
  0.000  0.000  0.000  0.200  0.000
  0.000  0.000  0.000  0.000  0.200
atomic mag. moment =     4.000000
atom   51   Tr[ns(na)] (up, down, total) =   1.00000  5.00000  6.00000
   spin  1
    eigenvalues: 
  0.200  0.200  0.200  0.200  0.200
    eigenvectors:
  1.000  0.000  0.000  0.000  0.000
  0.000  1.000  0.000  0.000  0.000
  0.000  0.000  1.000  0.000  0.000
  0.000  0.000  0.000  1.000  0.000
  0.000  0.000  0.000  0.000  1.000
    occupations:
  0.200  0.000  0.000  0.000  0.000
  0.000  0.200  0.000  0.000  0.000
  0.000  0.000  0.200  0.000  0.000
  0.000  0.000  0.000  0.200  0.000
  0.000  0.000  0.000  0.000  0.200
   spin  2
    eigenvalues: 
  1.000  1.000  1.000  1.000  1.000
    eigenvectors:
  1.000  0.000  0.000  0.000  0.000
  0.000  1.000  0.000  0.000  0.000
  0.000  0.000  1.000  0.000  0.000
  0.000  0.000  0.000  1.000  0.000
  0.000  0.000  0.000  0.000  1.000
    occupations:
  1.000  0.000  0.000  0.000  0.000
  0.000  1.000  0.000  0.000  0.000
  0.000  0.000  1.000  0.000  0.000
  0.000  0.000  0.000  1.000  0.000
  0.000  0.000  0.000  0.000  1.000
atomic mag. moment =    -4.000000
atom   52   Tr[ns(na)] (up, down, total) =   5.00000  1.00000  6.00000
   spin  1
    eigenvalues: 
  1.000  1.000  1.000  1.000  1.000
    eigenvectors:
  1.000  0.000  0.000  0.000  0.000
  0.000  1.000  0.000  0.000  0.000
  0.000  0.000  1.000  0.000  0.000
  0.000  0.000  0.000  1.000  0.000
  0.000  0.000  0.000  0.000  1.000
    occupations:
  1.000  0.000  0.000  0.000  0.000
  0.000  1.000  0.000  0.000  0.000
  0.000  0.000  1.000  0.000  0.000
  0.000  0.000  0.000  1.000  0.000
  0.000  0.000  0.000  0.000  1.000
   spin  2
    eigenvalues: 
  0.200  0.200  0.200  0.200  0.200
    eigenvectors:
  1.000  0.000  0.000  0.000  0.000
  0.000  1.000  0.000  0.000  0.000
  0.000  0.000  1.000  0.000  0.000
  0.000  0.000  0.000  1.000  0.000
  0.000  0.000  0.000  0.000  1.000
    occupations:
  0.200  0.000  0.000  0.000  0.000
  0.000  0.200  0.000  0.000  0.000
  0.000  0.000  0.200  0.000  0.000
  0.000  0.000  0.000  0.200  0.000
  0.000  0.000  0.000  0.000  0.200
atomic mag. moment =     4.000000
atom   53   Tr[ns(na)] (up, down, total) =   1.00000  5.00000  6.00000
   spin  1
    eigenvalues: 
  0.200  0.200  0.200  0.200  0.200
    eigenvectors:
  1.000  0.000  0.000  0.000  0.000
  0.000  1.000  0.000  0.000  0.000
  0.000  0.000  1.000  0.000  0.000
  0.000  0.000  0.000  1.000  0.000
  0.000  0.000  0.000  0.000  1.000
    occupations:
  0.200  0.000  0.000  0.000  0.000
  0.000  0.200  0.000  0.000  0.000
  0.000  0.000  0.200  0.000  0.000
  0.000  0.000  0.000  0.200  0.000
  0.000  0.000  0.000  0.000  0.200
   spin  2
    eigenvalues: 
  1.000  1.000  1.000  1.000  1.000
    eigenvectors:
  1.000  0.000  0.000  0.000  0.000
  0.000  1.000  0.000  0.000  0.000
  0.000  0.000  1.000  0.000  0.000
  0.000  0.000  0.000  1.000  0.000
  0.000  0.000  0.000  0.000  1.000
    occupations:
  1.000  0.000  0.000  0.000  0.000
  0.000  1.000  0.000  0.000  0.000
  0.000  0.000  1.000  0.000  0.000
  0.000  0.000  0.000  1.000  0.000
  0.000  0.000  0.000  0.000  1.000
atomic mag. moment =    -4.000000
atom   54   Tr[ns(na)] (up, down, total) =   5.00000  1.00000  6.00000
   spin  1
    eigenvalues: 
  1.000  1.000  1.000  1.000  1.000
    eigenvectors:
  1.000  0.000  0.000  0.000  0.000
  0.000  1.000  0.000  0.000  0.000
  0.000  0.000  1.000  0.000  0.000
  0.000  0.000  0.000  1.000  0.000
  0.000  0.000  0.000  0.000  1.000
    occupations:
  1.000  0.000  0.000  0.000  0.000
  0.000  1.000  0.000  0.000  0.000
  0.000  0.000  1.000  0.000  0.000
  0.000  0.000  0.000  1.000  0.000
  0.000  0.000  0.000  0.000  1.000
   spin  2
    eigenvalues: 
  0.200  0.200  0.200  0.200  0.200
    eigenvectors:
  1.000  0.000  0.000  0.000  0.000
  0.000  1.000  0.000  0.000  0.000
  0.000  0.000  1.000  0.000  0.000
  0.000  0.000  0.000  1.000  0.000
  0.000  0.000  0.000  0.000  1.000
    occupations:
  0.200  0.000  0.000  0.000  0.000
  0.000  0.200  0.000  0.000  0.000
  0.000  0.000  0.200  0.000  0.000
  0.000  0.000  0.000  0.200  0.000
  0.000  0.000  0.000  0.000  0.200
atomic mag. moment =     4.000000
atom   55   Tr[ns(na)] (up, down, total) =   1.00000  5.00000  6.00000
   spin  1
    eigenvalues: 
  0.200  0.200  0.200  0.200  0.200
    eigenvectors:
  1.000  0.000  0.000  0.000  0.000
  0.000  1.000  0.000  0.000  0.000
  0.000  0.000  1.000  0.000  0.000
  0.000  0.000  0.000  1.000  0.000
  0.000  0.000  0.000  0.000  1.000
    occupations:
  0.200  0.000  0.000  0.000  0.000
  0.000  0.200  0.000  0.000  0.000
  0.000  0.000  0.200  0.000  0.000
  0.000  0.000  0.000  0.200  0.000
  0.000  0.000  0.000  0.000  0.200
   spin  2
    eigenvalues: 
  1.000  1.000  1.000  1.000  1.000
    eigenvectors:
  1.000  0.000  0.000  0.000  0.000
  0.000  1.000  0.000  0.000  0.000
  0.000  0.000  1.000  0.000  0.000
  0.000  0.000  0.000  1.000  0.000
  0.000  0.000  0.000  0.000  1.000
    occupations:
  1.000  0.000  0.000  0.000  0.000
  0.000  1.000  0.000  0.000  0.000
  0.000  0.000  1.000  0.000  0.000
  0.000  0.000  0.000  1.000  0.000
  0.000  0.000  0.000  0.000  1.000
atomic mag. moment =    -4.000000
atom   56   Tr[ns(na)] (up, down, total) =   5.00000  1.00000  6.00000
   spin  1
    eigenvalues: 
  1.000  1.000  1.000  1.000  1.000
    eigenvectors:
  1.000  0.000  0.000  0.000  0.000
  0.000  1.000  0.000  0.000  0.000
  0.000  0.000  1.000  0.000  0.000
  0.000  0.000  0.000  1.000  0.000
  0.000  0.000  0.000  0.000  1.000
    occupations:
  1.000  0.000  0.000  0.000  0.000
  0.000  1.000  0.000  0.000  0.000
  0.000  0.000  1.000  0.000  0.000
  0.000  0.000  0.000  1.000  0.000
  0.000  0.000  0.000  0.000  1.000
   spin  2
    eigenvalues: 
  0.200  0.200  0.200  0.200  0.200
    eigenvectors:
  1.000  0.000  0.000  0.000  0.000
  0.000  1.000  0.000  0.000  0.000
  0.000  0.000  1.000  0.000  0.000
  0.000  0.000  0.000  1.000  0.000
  0.000  0.000  0.000  0.000  1.000
    occupations:
  0.200  0.000  0.000  0.000  0.000
  0.000  0.200  0.000  0.000  0.000
  0.000  0.000  0.200  0.000  0.000
  0.000  0.000  0.000  0.200  0.000
  0.000  0.000  0.000  0.000  0.200
atomic mag. moment =     4.000000
atom   57   Tr[ns(na)] (up, down, total) =   1.00000  5.00000  6.00000
   spin  1
    eigenvalues: 
  0.200  0.200  0.200  0.200  0.200
    eigenvectors:
  1.000  0.000  0.000  0.000  0.000
  0.000  1.000  0.000  0.000  0.000
  0.000  0.000  1.000  0.000  0.000
  0.000  0.000  0.000  1.000  0.000
  0.000  0.000  0.000  0.000  1.000
    occupations:
  0.200  0.000  0.000  0.000  0.000
  0.000  0.200  0.000  0.000  0.000
  0.000  0.000  0.200  0.000  0.000
  0.000  0.000  0.000  0.200  0.000
  0.000  0.000  0.000  0.000  0.200
   spin  2
    eigenvalues: 
  1.000  1.000  1.000  1.000  1.000
    eigenvectors:
  1.000  0.000  0.000  0.000  0.000
  0.000  1.000  0.000  0.000  0.000
  0.000  0.000  1.000  0.000  0.000
  0.000  0.000  0.000  1.000  0.000
  0.000  0.000  0.000  0.000  1.000
    occupations:
  1.000  0.000  0.000  0.000  0.000
  0.000  1.000  0.000  0.000  0.000
  0.000  0.000  1.000  0.000  0.000
  0.000  0.000  0.000  1.000  0.000
  0.000  0.000  0.000  0.000  1.000
atomic mag. moment =    -4.000000
atom   58   Tr[ns(na)] (up, down, total) =   5.00000  1.00000  6.00000
   spin  1
    eigenvalues: 
  1.000  1.000  1.000  1.000  1.000
    eigenvectors:
  1.000  0.000  0.000  0.000  0.000
  0.000  1.000  0.000  0.000  0.000
  0.000  0.000  1.000  0.000  0.000
  0.000  0.000  0.000  1.000  0.000
  0.000  0.000  0.000  0.000  1.000
    occupations:
  1.000  0.000  0.000  0.000  0.000
  0.000  1.000  0.000  0.000  0.000
  0.000  0.000  1.000  0.000  0.000
  0.000  0.000  0.000  1.000  0.000
  0.000  0.000  0.000  0.000  1.000
   spin  2
    eigenvalues: 
  0.200  0.200  0.200  0.200  0.200
    eigenvectors:
  1.000  0.000  0.000  0.000  0.000
  0.000  1.000  0.000  0.000  0.000
  0.000  0.000  1.000  0.000  0.000
  0.000  0.000  0.000  1.000  0.000
  0.000  0.000  0.000  0.000  1.000
    occupations:
  0.200  0.000  0.000  0.000  0.000
  0.000  0.200  0.000  0.000  0.000
  0.000  0.000  0.200  0.000  0.000
  0.000  0.000  0.000  0.200  0.000
  0.000  0.000  0.000  0.000  0.200
atomic mag. moment =     4.000000
atom   59   Tr[ns(na)] (up, down, total) =   1.00000  5.00000  6.00000
   spin  1
    eigenvalues: 
  0.200  0.200  0.200  0.200  0.200
    eigenvectors:
  1.000  0.000  0.000  0.000  0.000
  0.000  1.000  0.000  0.000  0.000
  0.000  0.000  1.000  0.000  0.000
  0.000  0.000  0.000  1.000  0.000
  0.000  0.000  0.000  0.000  1.000
    occupations:
  0.200  0.000  0.000  0.000  0.000
  0.000  0.200  0.000  0.000  0.000
  0.000  0.000  0.200  0.000  0.000
  0.000  0.000  0.000  0.200  0.000
  0.000  0.000  0.000  0.000  0.200
   spin  2
    eigenvalues: 
  1.000  1.000  1.000  1.000  1.000
    eigenvectors:
  1.000  0.000  0.000  0.000  0.000
  0.000  1.000  0.000  0.000  0.000
  0.000  0.000  1.000  0.000  0.000
  0.000  0.000  0.000  1.000  0.000
  0.000  0.000  0.000  0.000  1.000
    occupations:
  1.000  0.000  0.000  0.000  0.000
  0.000  1.000  0.000  0.000  0.000
  0.000  0.000  1.000  0.000  0.000
  0.000  0.000  0.000  1.000  0.000
  0.000  0.000  0.000  0.000  1.000
atomic mag. moment =    -4.000000
atom   60   Tr[ns(na)] (up, down, total) =   5.00000  1.00000  6.00000
   spin  1
    eigenvalues: 
  1.000  1.000  1.000  1.000  1.000
    eigenvectors:
  1.000  0.000  0.000  0.000  0.000
  0.000  1.000  0.000  0.000  0.000
  0.000  0.000  1.000  0.000  0.000
  0.000  0.000  0.000  1.000  0.000
  0.000  0.000  0.000  0.000  1.000
    occupations:
  1.000  0.000  0.000  0.000  0.000
  0.000  1.000  0.000  0.000  0.000
  0.000  0.000  1.000  0.000  0.000
  0.000  0.000  0.000  1.000  0.000
  0.000  0.000  0.000  0.000  1.000
   spin  2
    eigenvalues: 
  0.200  0.200  0.200  0.200  0.200
    eigenvectors:
  1.000  0.000  0.000  0.000  0.000
  0.000  1.000  0.000  0.000  0.000
  0.000  0.000  1.000  0.000  0.000
  0.000  0.000  0.000  1.000  0.000
  0.000  0.000  0.000  0.000  1.000
    occupations:
  0.200  0.000  0.000  0.000  0.000
  0.000  0.200  0.000  0.000  0.000
  0.000  0.000  0.200  0.000  0.000
  0.000  0.000  0.000  0.200  0.000
  0.000  0.000  0.000  0.000  0.200
atomic mag. moment =     4.000000
atom   79   Tr[ns(na)] (up, down, total) =   1.00000  5.00000  6.00000
   spin  1
    eigenvalues: 
  0.200  0.200  0.200  0.200  0.200
    eigenvectors:
  1.000  0.000  0.000  0.000  0.000
  0.000  1.000  0.000  0.000  0.000
  0.000  0.000  1.000  0.000  0.000
  0.000  0.000  0.000  1.000  0.000
  0.000  0.000  0.000  0.000  1.000
    occupations:
  0.200  0.000  0.000  0.000  0.000
  0.000  0.200  0.000  0.000  0.000
  0.000  0.000  0.200  0.000  0.000
  0.000  0.000  0.000  0.200  0.000
  0.000  0.000  0.000  0.000  0.200
   spin  2
    eigenvalues: 
  1.000  1.000  1.000  1.000  1.000
    eigenvectors:
  1.000  0.000  0.000  0.000  0.000
  0.000  1.000  0.000  0.000  0.000
  0.000  0.000  1.000  0.000  0.000
  0.000  0.000  0.000  1.000  0.000
  0.000  0.000  0.000  0.000  1.000
    occupations:
  1.000  0.000  0.000  0.000  0.000
  0.000  1.000  0.000  0.000  0.000
  0.000  0.000  1.000  0.000  0.000
  0.000  0.000  0.000  1.000  0.000
  0.000  0.000  0.000  0.000  1.000
atomic mag. moment =    -4.000000
atom   80   Tr[ns(na)] (up, down, total) =   5.00000  1.00000  6.00000
   spin  1
    eigenvalues: 
  1.000  1.000  1.000  1.000  1.000
    eigenvectors:
  1.000  0.000  0.000  0.000  0.000
  0.000  1.000  0.000  0.000  0.000
  0.000  0.000  1.000  0.000  0.000
  0.000  0.000  0.000  1.000  0.000
  0.000  0.000  0.000  0.000  1.000
    occupations:
  1.000  0.000  0.000  0.000  0.000
  0.000  1.000  0.000  0.000  0.000
  0.000  0.000  1.000  0.000  0.000
  0.000  0.000  0.000  1.000  0.000
  0.000  0.000  0.000  0.000  1.000
   spin  2
    eigenvalues: 
  0.200  0.200  0.200  0.200  0.200
    eigenvectors:
  1.000  0.000  0.000  0.000  0.000
  0.000  1.000  0.000  0.000  0.000
  0.000  0.000  1.000  0.000  0.000
  0.000  0.000  0.000  1.000  0.000
  0.000  0.000  0.000  0.000  1.000
    occupations:
  0.200  0.000  0.000  0.000  0.000
  0.000  0.200  0.000  0.000  0.000
  0.000  0.000  0.200  0.000  0.000
  0.000  0.000  0.000  0.200  0.000
  0.000  0.000  0.000  0.000  0.200
atomic mag. moment =     4.000000
atom   81   Tr[ns(na)] (up, down, total) =   1.00000  5.00000  6.00000
   spin  1
    eigenvalues: 
  0.200  0.200  0.200  0.200  0.200
    eigenvectors:
  1.000  0.000  0.000  0.000  0.000
  0.000  1.000  0.000  0.000  0.000
  0.000  0.000  1.000  0.000  0.000
  0.000  0.000  0.000  1.000  0.000
  0.000  0.000  0.000  0.000  1.000
    occupations:
  0.200  0.000  0.000  0.000  0.000
  0.000  0.200  0.000  0.000  0.000
  0.000  0.000  0.200  0.000  0.000
  0.000  0.000  0.000  0.200  0.000
  0.000  0.000  0.000  0.000  0.200
   spin  2
    eigenvalues: 
  1.000  1.000  1.000  1.000  1.000
    eigenvectors:
  1.000  0.000  0.000  0.000  0.000
  0.000  1.000  0.000  0.000  0.000
  0.000  0.000  1.000  0.000  0.000
  0.000  0.000  0.000  1.000  0.000
  0.000  0.000  0.000  0.000  1.000
    occupations:
  1.000  0.000  0.000  0.000  0.000
  0.000  1.000  0.000  0.000  0.000
  0.000  0.000  1.000  0.000  0.000
  0.000  0.000  0.000  1.000  0.000
  0.000  0.000  0.000  0.000  1.000
atomic mag. moment =    -4.000000
atom   82   Tr[ns(na)] (up, down, total) =   5.00000  1.00000  6.00000
   spin  1
    eigenvalues: 
  1.000  1.000  1.000  1.000  1.000
    eigenvectors:
  1.000  0.000  0.000  0.000  0.000
  0.000  1.000  0.000  0.000  0.000
  0.000  0.000  1.000  0.000  0.000
  0.000  0.000  0.000  1.000  0.000
  0.000  0.000  0.000  0.000  1.000
    occupations:
  1.000  0.000  0.000  0.000  0.000
  0.000  1.000  0.000  0.000  0.000
  0.000  0.000  1.000  0.000  0.000
  0.000  0.000  0.000  1.000  0.000
  0.000  0.000  0.000  0.000  1.000
   spin  2
    eigenvalues: 
  0.200  0.200  0.200  0.200  0.200
    eigenvectors:
  1.000  0.000  0.000  0.000  0.000
  0.000  1.000  0.000  0.000  0.000
  0.000  0.000  1.000  0.000  0.000
  0.000  0.000  0.000  1.000  0.000
  0.000  0.000  0.000  0.000  1.000
    occupations:
  0.200  0.000  0.000  0.000  0.000
  0.000  0.200  0.000  0.000  0.000
  0.000  0.000  0.200  0.000  0.000
  0.000  0.000  0.000  0.200  0.000
  0.000  0.000  0.000  0.000  0.200
atomic mag. moment =     4.000000
atom   83   Tr[ns(na)] (up, down, total) =   1.00000  5.00000  6.00000
   spin  1
    eigenvalues: 
  0.200  0.200  0.200  0.200  0.200
    eigenvectors:
  1.000  0.000  0.000  0.000  0.000
  0.000  1.000  0.000  0.000  0.000
  0.000  0.000  1.000  0.000  0.000
  0.000  0.000  0.000  1.000  0.000
  0.000  0.000  0.000  0.000  1.000
    occupations:
  0.200  0.000  0.000  0.000  0.000
  0.000  0.200  0.000  0.000  0.000
  0.000  0.000  0.200  0.000  0.000
  0.000  0.000  0.000  0.200  0.000
  0.000  0.000  0.000  0.000  0.200
   spin  2
    eigenvalues: 
  1.000  1.000  1.000  1.000  1.000
    eigenvectors:
  1.000  0.000  0.000  0.000  0.000
  0.000  1.000  0.000  0.000  0.000
  0.000  0.000  1.000  0.000  0.000
  0.000  0.000  0.000  1.000  0.000
  0.000  0.000  0.000  0.000  1.000
    occupations:
  1.000  0.000  0.000  0.000  0.000
  0.000  1.000  0.000  0.000  0.000
  0.000  0.000  1.000  0.000  0.000
  0.000  0.000  0.000  1.000  0.000
  0.000  0.000  0.000  0.000  1.000
atomic mag. moment =    -4.000000
atom   84   Tr[ns(na)] (up, down, total) =   5.00000  1.00000  6.00000
   spin  1
    eigenvalues: 
  1.000  1.000  1.000  1.000  1.000
    eigenvectors:
  1.000  0.000  0.000  0.000  0.000
  0.000  1.000  0.000  0.000  0.000
  0.000  0.000  1.000  0.000  0.000
  0.000  0.000  0.000  1.000  0.000
  0.000  0.000  0.000  0.000  1.000
    occupations:
  1.000  0.000  0.000  0.000  0.000
  0.000  1.000  0.000  0.000  0.000
  0.000  0.000  1.000  0.000  0.000
  0.000  0.000  0.000  1.000  0.000
  0.000  0.000  0.000  0.000  1.000
   spin  2
    eigenvalues: 
  0.200  0.200  0.200  0.200  0.200
    eigenvectors:
  1.000  0.000  0.000  0.000  0.000
  0.000  1.000  0.000  0.000  0.000
  0.000  0.000  1.000  0.000  0.000
  0.000  0.000  0.000  1.000  0.000
  0.000  0.000  0.000  0.000  1.000
    occupations:
  0.200  0.000  0.000  0.000  0.000
  0.000  0.200  0.000  0.000  0.000
  0.000  0.000  0.200  0.000  0.000
  0.000  0.000  0.000  0.200  0.000
  0.000  0.000  0.000  0.000  0.200
atomic mag. moment =     4.000000
atom   85   Tr[ns(na)] (up, down, total) =   1.00000  5.00000  6.00000
   spin  1
    eigenvalues: 
  0.200  0.200  0.200  0.200  0.200
    eigenvectors:
  1.000  0.000  0.000  0.000  0.000
  0.000  1.000  0.000  0.000  0.000
  0.000  0.000  1.000  0.000  0.000
  0.000  0.000  0.000  1.000  0.000
  0.000  0.000  0.000  0.000  1.000
    occupations:
  0.200  0.000  0.000  0.000  0.000
  0.000  0.200  0.000  0.000  0.000
  0.000  0.000  0.200  0.000  0.000
  0.000  0.000  0.000  0.200  0.000
  0.000  0.000  0.000  0.000  0.200
   spin  2
    eigenvalues: 
  1.000  1.000  1.000  1.000  1.000
    eigenvectors:
  1.000  0.000  0.000  0.000  0.000
  0.000  1.000  0.000  0.000  0.000
  0.000  0.000  1.000  0.000  0.000
  0.000  0.000  0.000  1.000  0.000
  0.000  0.000  0.000  0.000  1.000
    occupations:
  1.000  0.000  0.000  0.000  0.000
  0.000  1.000  0.000  0.000  0.000
  0.000  0.000  1.000  0.000  0.000
  0.000  0.000  0.000  1.000  0.000
  0.000  0.000  0.000  0.000  1.000
atomic mag. moment =    -4.000000
atom   86   Tr[ns(na)] (up, down, total) =   5.00000  1.00000  6.00000
   spin  1
    eigenvalues: 
  1.000  1.000  1.000  1.000  1.000
    eigenvectors:
  1.000  0.000  0.000  0.000  0.000
  0.000  1.000  0.000  0.000  0.000
  0.000  0.000  1.000  0.000  0.000
  0.000  0.000  0.000  1.000  0.000
  0.000  0.000  0.000  0.000  1.000
    occupations:
  1.000  0.000  0.000  0.000  0.000
  0.000  1.000  0.000  0.000  0.000
  0.000  0.000  1.000  0.000  0.000
  0.000  0.000  0.000  1.000  0.000
  0.000  0.000  0.000  0.000  1.000
   spin  2
    eigenvalues: 
  0.200  0.200  0.200  0.200  0.200
    eigenvectors:
  1.000  0.000  0.000  0.000  0.000
  0.000  1.000  0.000  0.000  0.000
  0.000  0.000  1.000  0.000  0.000
  0.000  0.000  0.000  1.000  0.000
  0.000  0.000  0.000  0.000  1.000
    occupations:
  0.200  0.000  0.000  0.000  0.000
  0.000  0.200  0.000  0.000  0.000
  0.000  0.000  0.200  0.000  0.000
  0.000  0.000  0.000  0.200  0.000
  0.000  0.000  0.000  0.000  0.200
atomic mag. moment =     4.000000
atom   87   Tr[ns(na)] (up, down, total) =   1.00000  5.00000  6.00000
   spin  1
    eigenvalues: 
  0.200  0.200  0.200  0.200  0.200
    eigenvectors:
  1.000  0.000  0.000  0.000  0.000
  0.000  1.000  0.000  0.000  0.000
  0.000  0.000  1.000  0.000  0.000
  0.000  0.000  0.000  1.000  0.000
  0.000  0.000  0.000  0.000  1.000
    occupations:
  0.200  0.000  0.000  0.000  0.000
  0.000  0.200  0.000  0.000  0.000
  0.000  0.000  0.200  0.000  0.000
  0.000  0.000  0.000  0.200  0.000
  0.000  0.000  0.000  0.000  0.200
   spin  2
    eigenvalues: 
  1.000  1.000  1.000  1.000  1.000
    eigenvectors:
  1.000  0.000  0.000  0.000  0.000
  0.000  1.000  0.000  0.000  0.000
  0.000  0.000  1.000  0.000  0.000
  0.000  0.000  0.000  1.000  0.000
  0.000  0.000  0.000  0.000  1.000
    occupations:
  1.000  0.000  0.000  0.000  0.000
  0.000  1.000  0.000  0.000  0.000
  0.000  0.000  1.000  0.000  0.000
  0.000  0.000  0.000  1.000  0.000
  0.000  0.000  0.000  0.000  1.000
atomic mag. moment =    -4.000000
atom   88   Tr[ns(na)] (up, down, total) =   5.00000  1.00000  6.00000
   spin  1
    eigenvalues: 
  1.000  1.000  1.000  1.000  1.000
    eigenvectors:
  1.000  0.000  0.000  0.000  0.000
  0.000  1.000  0.000  0.000  0.000
  0.000  0.000  1.000  0.000  0.000
  0.000  0.000  0.000  1.000  0.000
  0.000  0.000  0.000  0.000  1.000
    occupations:
  1.000  0.000  0.000  0.000  0.000
  0.000  1.000  0.000  0.000  0.000
  0.000  0.000  1.000  0.000  0.000
  0.000  0.000  0.000  1.000  0.000
  0.000  0.000  0.000  0.000  1.000
   spin  2
    eigenvalues: 
  0.200  0.200  0.200  0.200  0.200
    eigenvectors:
  1.000  0.000  0.000  0.000  0.000
  0.000  1.000  0.000  0.000  0.000
  0.000  0.000  1.000  0.000  0.000
  0.000  0.000  0.000  1.000  0.000
  0.000  0.000  0.000  0.000  1.000
    occupations:
  0.200  0.000  0.000  0.000  0.000
  0.000  0.200  0.000  0.000  0.000
  0.000  0.000  0.200  0.000  0.000
  0.000  0.000  0.000  0.200  0.000
  0.000  0.000  0.000  0.000  0.200
atomic mag. moment =     4.000000
atom   89   Tr[ns(na)] (up, down, total) =   1.00000  5.00000  6.00000
   spin  1
    eigenvalues: 
  0.200  0.200  0.200  0.200  0.200
    eigenvectors:
  1.000  0.000  0.000  0.000  0.000
  0.000  1.000  0.000  0.000  0.000
  0.000  0.000  1.000  0.000  0.000
  0.000  0.000  0.000  1.000  0.000
  0.000  0.000  0.000  0.000  1.000
    occupations:
  0.200  0.000  0.000  0.000  0.000
  0.000  0.200  0.000  0.000  0.000
  0.000  0.000  0.200  0.000  0.000
  0.000  0.000  0.000  0.200  0.000
  0.000  0.000  0.000  0.000  0.200
   spin  2
    eigenvalues: 
  1.000  1.000  1.000  1.000  1.000
    eigenvectors:
  1.000  0.000  0.000  0.000  0.000
  0.000  1.000  0.000  0.000  0.000
  0.000  0.000  1.000  0.000  0.000
  0.000  0.000  0.000  1.000  0.000
  0.000  0.000  0.000  0.000  1.000
    occupations:
  1.000  0.000  0.000  0.000  0.000
  0.000  1.000  0.000  0.000  0.000
  0.000  0.000  1.000  0.000  0.000
  0.000  0.000  0.000  1.000  0.000
  0.000  0.000  0.000  0.000  1.000
atomic mag. moment =    -4.000000
atom   90   Tr[ns(na)] (up, down, total) =   5.00000  1.00000  6.00000
   spin  1
    eigenvalues: 
  1.000  1.000  1.000  1.000  1.000
    eigenvectors:
  1.000  0.000  0.000  0.000  0.000
  0.000  1.000  0.000  0.000  0.000
  0.000  0.000  1.000  0.000  0.000
  0.000  0.000  0.000  1.000  0.000
  0.000  0.000  0.000  0.000  1.000
    occupations:
  1.000  0.000  0.000  0.000  0.000
  0.000  1.000  0.000  0.000  0.000
  0.000  0.000  1.000  0.000  0.000
  0.000  0.000  0.000  1.000  0.000
  0.000  0.000  0.000  0.000  1.000
   spin  2
    eigenvalues: 
  0.200  0.200  0.200  0.200  0.200
    eigenvectors:
  1.000  0.000  0.000  0.000  0.000
  0.000  1.000  0.000  0.000  0.000
  0.000  0.000  1.000  0.000  0.000
  0.000  0.000  0.000  1.000  0.000
  0.000  0.000  0.000  0.000  1.000
    occupations:
  0.200  0.000  0.000  0.000  0.000
  0.000  0.200  0.000  0.000  0.000
  0.000  0.000  0.200  0.000  0.000
  0.000  0.000  0.000  0.200  0.000
  0.000  0.000  0.000  0.000  0.200
atomic mag. moment =     4.000000
atom  109   Tr[ns(na)] (up, down, total) =   1.00000  5.00000  6.00000
   spin  1
    eigenvalues: 
  0.200  0.200  0.200  0.200  0.200
    eigenvectors:
  1.000  0.000  0.000  0.000  0.000
  0.000  1.000  0.000  0.000  0.000
  0.000  0.000  1.000  0.000  0.000
  0.000  0.000  0.000  1.000  0.000
  0.000  0.000  0.000  0.000  1.000
    occupations:
  0.200  0.000  0.000  0.000  0.000
  0.000  0.200  0.000  0.000  0.000
  0.000  0.000  0.200  0.000  0.000
  0.000  0.000  0.000  0.200  0.000
  0.000  0.000  0.000  0.000  0.200
   spin  2
    eigenvalues: 
  1.000  1.000  1.000  1.000  1.000
    eigenvectors:
  1.000  0.000  0.000  0.000  0.000
  0.000  1.000  0.000  0.000  0.000
  0.000  0.000  1.000  0.000  0.000
  0.000  0.000  0.000  1.000  0.000
  0.000  0.000  0.000  0.000  1.000
    occupations:
  1.000  0.000  0.000  0.000  0.000
  0.000  1.000  0.000  0.000  0.000
  0.000  0.000  1.000  0.000  0.000
  0.000  0.000  0.000  1.000  0.000
  0.000  0.000  0.000  0.000  1.000
atomic mag. moment =    -4.000000
atom  110   Tr[ns(na)] (up, down, total) =   5.00000  1.00000  6.00000
   spin  1
    eigenvalues: 
  1.000  1.000  1.000  1.000  1.000
    eigenvectors:
  1.000  0.000  0.000  0.000  0.000
  0.000  1.000  0.000  0.000  0.000
  0.000  0.000  1.000  0.000  0.000
  0.000  0.000  0.000  1.000  0.000
  0.000  0.000  0.000  0.000  1.000
    occupations:
  1.000  0.000  0.000  0.000  0.000
  0.000  1.000  0.000  0.000  0.000
  0.000  0.000  1.000  0.000  0.000
  0.000  0.000  0.000  1.000  0.000
  0.000  0.000  0.000  0.000  1.000
   spin  2
    eigenvalues: 
  0.200  0.200  0.200  0.200  0.200
    eigenvectors:
  1.000  0.000  0.000  0.000  0.000
  0.000  1.000  0.000  0.000  0.000
  0.000  0.000  1.000  0.000  0.000
  0.000  0.000  0.000  1.000  0.000
  0.000  0.000  0.000  0.000  1.000
    occupations:
  0.200  0.000  0.000  0.000  0.000
  0.000  0.200  0.000  0.000  0.000
  0.000  0.000  0.200  0.000  0.000
  0.000  0.000  0.000  0.200  0.000
  0.000  0.000  0.000  0.000  0.200
atomic mag. moment =     4.000000
atom  111   Tr[ns(na)] (up, down, total) =   1.00000  5.00000  6.00000
   spin  1
    eigenvalues: 
  0.200  0.200  0.200  0.200  0.200
    eigenvectors:
  1.000  0.000  0.000  0.000  0.000
  0.000  1.000  0.000  0.000  0.000
  0.000  0.000  1.000  0.000  0.000
  0.000  0.000  0.000  1.000  0.000
  0.000  0.000  0.000  0.000  1.000
    occupations:
  0.200  0.000  0.000  0.000  0.000
  0.000  0.200  0.000  0.000  0.000
  0.000  0.000  0.200  0.000  0.000
  0.000  0.000  0.000  0.200  0.000
  0.000  0.000  0.000  0.000  0.200
   spin  2
    eigenvalues: 
  1.000  1.000  1.000  1.000  1.000
    eigenvectors:
  1.000  0.000  0.000  0.000  0.000
  0.000  1.000  0.000  0.000  0.000
  0.000  0.000  1.000  0.000  0.000
  0.000  0.000  0.000  1.000  0.000
  0.000  0.000  0.000  0.000  1.000
    occupations:
  1.000  0.000  0.000  0.000  0.000
  0.000  1.000  0.000  0.000  0.000
  0.000  0.000  1.000  0.000  0.000
  0.000  0.000  0.000  1.000  0.000
  0.000  0.000  0.000  0.000  1.000
atomic mag. moment =    -4.000000
atom  112   Tr[ns(na)] (up, down, total) =   5.00000  1.00000  6.00000
   spin  1
    eigenvalues: 
  1.000  1.000  1.000  1.000  1.000
    eigenvectors:
  1.000  0.000  0.000  0.000  0.000
  0.000  1.000  0.000  0.000  0.000
  0.000  0.000  1.000  0.000  0.000
  0.000  0.000  0.000  1.000  0.000
  0.000  0.000  0.000  0.000  1.000
    occupations:
  1.000  0.000  0.000  0.000  0.000
  0.000  1.000  0.000  0.000  0.000
  0.000  0.000  1.000  0.000  0.000
  0.000  0.000  0.000  1.000  0.000
  0.000  0.000  0.000  0.000  1.000
   spin  2
    eigenvalues: 
  0.200  0.200  0.200  0.200  0.200
    eigenvectors:
  1.000  0.000  0.000  0.000  0.000
  0.000  1.000  0.000  0.000  0.000
  0.000  0.000  1.000  0.000  0.000
  0.000  0.000  0.000  1.000  0.000
  0.000  0.000  0.000  0.000  1.000
    occupations:
  0.200  0.000  0.000  0.000  0.000
  0.000  0.200  0.000  0.000  0.000
  0.000  0.000  0.200  0.000  0.000
  0.000  0.000  0.000  0.200  0.000
  0.000  0.000  0.000  0.000  0.200
atomic mag. moment =     4.000000
atom  114   Tr[ns(na)] (up, down, total) =   5.00000  1.00000  6.00000
   spin  1
    eigenvalues: 
  1.000  1.000  1.000  1.000  1.000
    eigenvectors:
  1.000  0.000  0.000  0.000  0.000
  0.000  1.000  0.000  0.000  0.000
  0.000  0.000  1.000  0.000  0.000
  0.000  0.000  0.000  1.000  0.000
  0.000  0.000  0.000  0.000  1.000
    occupations:
  1.000  0.000  0.000  0.000  0.000
  0.000  1.000  0.000  0.000  0.000
  0.000  0.000  1.000  0.000  0.000
  0.000  0.000  0.000  1.000  0.000
  0.000  0.000  0.000  0.000  1.000
   spin  2
    eigenvalues: 
  0.200  0.200  0.200  0.200  0.200
    eigenvectors:
  1.000  0.000  0.000  0.000  0.000
  0.000  1.000  0.000  0.000  0.000
  0.000  0.000  1.000  0.000  0.000
  0.000  0.000  0.000  1.000  0.000
  0.000  0.000  0.000  0.000  1.000
    occupations:
  0.200  0.000  0.000  0.000  0.000
  0.000  0.200  0.000  0.000  0.000
  0.000  0.000  0.200  0.000  0.000
  0.000  0.000  0.000  0.200  0.000
  0.000  0.000  0.000  0.000  0.200
atomic mag. moment =     4.000000
atom  115   Tr[ns(na)] (up, down, total) =   1.00000  5.00000  6.00000
   spin  1
    eigenvalues: 
  0.200  0.200  0.200  0.200  0.200
    eigenvectors:
  1.000  0.000  0.000  0.000  0.000
  0.000  1.000  0.000  0.000  0.000
  0.000  0.000  1.000  0.000  0.000
  0.000  0.000  0.000  1.000  0.000
  0.000  0.000  0.000  0.000  1.000
    occupations:
  0.200  0.000  0.000  0.000  0.000
  0.000  0.200  0.000  0.000  0.000
  0.000  0.000  0.200  0.000  0.000
  0.000  0.000  0.000  0.200  0.000
  0.000  0.000  0.000  0.000  0.200
   spin  2
    eigenvalues: 
  1.000  1.000  1.000  1.000  1.000
    eigenvectors:
  1.000  0.000  0.000  0.000  0.000
  0.000  1.000  0.000  0.000  0.000
  0.000  0.000  1.000  0.000  0.000
  0.000  0.000  0.000  1.000  0.000
  0.000  0.000  0.000  0.000  1.000
    occupations:
  1.000  0.000  0.000  0.000  0.000
  0.000  1.000  0.000  0.000  0.000
  0.000  0.000  1.000  0.000  0.000
  0.000  0.000  0.000  1.000  0.000
  0.000  0.000  0.000  0.000  1.000
atomic mag. moment =    -4.000000
atom  116   Tr[ns(na)] (up, down, total) =   5.00000  1.00000  6.00000
   spin  1
    eigenvalues: 
  1.000  1.000  1.000  1.000  1.000
    eigenvectors:
  1.000  0.000  0.000  0.000  0.000
  0.000  1.000  0.000  0.000  0.000
  0.000  0.000  1.000  0.000  0.000
  0.000  0.000  0.000  1.000  0.000
  0.000  0.000  0.000  0.000  1.000
    occupations:
  1.000  0.000  0.000  0.000  0.000
  0.000  1.000  0.000  0.000  0.000
  0.000  0.000  1.000  0.000  0.000
  0.000  0.000  0.000  1.000  0.000
  0.000  0.000  0.000  0.000  1.000
   spin  2
    eigenvalues: 
  0.200  0.200  0.200  0.200  0.200
    eigenvectors:
  1.000  0.000  0.000  0.000  0.000
  0.000  1.000  0.000  0.000  0.000
  0.000  0.000  1.000  0.000  0.000
  0.000  0.000  0.000  1.000  0.000
  0.000  0.000  0.000  0.000  1.000
    occupations:
  0.200  0.000  0.000  0.000  0.000
  0.000  0.200  0.000  0.000  0.000
  0.000  0.000  0.200  0.000  0.000
  0.000  0.000  0.000  0.200  0.000
  0.000  0.000  0.000  0.000  0.200
atomic mag. moment =     4.000000
atom  117   Tr[ns(na)] (up, down, total) =   1.00000  5.00000  6.00000
   spin  1
    eigenvalues: 
  0.200  0.200  0.200  0.200  0.200
    eigenvectors:
  1.000  0.000  0.000  0.000  0.000
  0.000  1.000  0.000  0.000  0.000
  0.000  0.000  1.000  0.000  0.000
  0.000  0.000  0.000  1.000  0.000
  0.000  0.000  0.000  0.000  1.000
    occupations:
  0.200  0.000  0.000  0.000  0.000
  0.000  0.200  0.000  0.000  0.000
  0.000  0.000  0.200  0.000  0.000
  0.000  0.000  0.000  0.200  0.000
  0.000  0.000  0.000  0.000  0.200
   spin  2
    eigenvalues: 
  1.000  1.000  1.000  1.000  1.000
    eigenvectors:
  1.000  0.000  0.000  0.000  0.000
  0.000  1.000  0.000  0.000  0.000
  0.000  0.000  1.000  0.000  0.000
  0.000  0.000  0.000  1.000  0.000
  0.000  0.000  0.000  0.000  1.000
    occupations:
  1.000  0.000  0.000  0.000  0.000
  0.000  1.000  0.000  0.000  0.000
  0.000  0.000  1.000  0.000  0.000
  0.000  0.000  0.000  1.000  0.000
  0.000  0.000  0.000  0.000  1.000
atomic mag. moment =    -4.000000
atom  118   Tr[ns(na)] (up, down, total) =   5.00000  1.00000  6.00000
   spin  1
    eigenvalues: 
  1.000  1.000  1.000  1.000  1.000
    eigenvectors:
  1.000  0.000  0.000  0.000  0.000
  0.000  1.000  0.000  0.000  0.000
  0.000  0.000  1.000  0.000  0.000
  0.000  0.000  0.000  1.000  0.000
  0.000  0.000  0.000  0.000  1.000
    occupations:
  1.000  0.000  0.000  0.000  0.000
  0.000  1.000  0.000  0.000  0.000
  0.000  0.000  1.000  0.000  0.000
  0.000  0.000  0.000  1.000  0.000
  0.000  0.000  0.000  0.000  1.000
   spin  2
    eigenvalues: 
  0.200  0.200  0.200  0.200  0.200
    eigenvectors:
  1.000  0.000  0.000  0.000  0.000
  0.000  1.000  0.000  0.000  0.000
  0.000  0.000  1.000  0.000  0.000
  0.000  0.000  0.000  1.000  0.000
  0.000  0.000  0.000  0.000  1.000
    occupations:
  0.200  0.000  0.000  0.000  0.000
  0.000  0.200  0.000  0.000  0.000
  0.000  0.000  0.200  0.000  0.000
  0.000  0.000  0.000  0.200  0.000
  0.000  0.000  0.000  0.000  0.200
atomic mag. moment =     4.000000
atom  119   Tr[ns(na)] (up, down, total) =   1.00000  5.00000  6.00000
   spin  1
    eigenvalues: 
  0.200  0.200  0.200  0.200  0.200
    eigenvectors:
  1.000  0.000  0.000  0.000  0.000
  0.000  1.000  0.000  0.000  0.000
  0.000  0.000  1.000  0.000  0.000
  0.000  0.000  0.000  1.000  0.000
  0.000  0.000  0.000  0.000  1.000
    occupations:
  0.200  0.000  0.000  0.000  0.000
  0.000  0.200  0.000  0.000  0.000
  0.000  0.000  0.200  0.000  0.000
  0.000  0.000  0.000  0.200  0.000
  0.000  0.000  0.000  0.000  0.200
   spin  2
    eigenvalues: 
  1.000  1.000  1.000  1.000  1.000
    eigenvectors:
  1.000  0.000  0.000  0.000  0.000
  0.000  1.000  0.000  0.000  0.000
  0.000  0.000  1.000  0.000  0.000
  0.000  0.000  0.000  1.000  0.000
  0.000  0.000  0.000  0.000  1.000
    occupations:
  1.000  0.000  0.000  0.000  0.000
  0.000  1.000  0.000  0.000  0.000
  0.000  0.000  1.000  0.000  0.000
  0.000  0.000  0.000  1.000  0.000
  0.000  0.000  0.000  0.000  1.000
atomic mag. moment =    -4.000000
N of occupied +U levels =  276.000000
 --- exit write_ns ---
 Atomic wfc used for LDA+U Projector are NOT orthogonalized
     Starting wfc are  904 randomized atomic wfcs

     total cpu time spent up to now is       40.3 secs

     per-process dynamical memory:   424.5 Mb

     Self-consistent Calculation

     iteration #  1     ecut=    40.00 Ry     beta=0.30
     Davidson diagonalization with overlap
     ethr =  1.00E-02,  avg # of iterations =  3.0
 --- enter write_ns ---
 LDA+U parameters:
U( 2)     =  4.30000000
alpha( 2) =  0.00000000
U( 3)     =  4.30000000
alpha( 3) =  0.00000000
atom   19   Tr[ns(na)] (up, down, total) =   0.32650  4.95734  5.28384
   spin  1
    eigenvalues: 
  0.038  0.038  0.039  0.106  0.106
    eigenvectors:
  0.001  0.007  0.993  0.000  0.000
  0.132  0.276  0.001  0.275  0.315
  0.275  0.136  0.002  0.318  0.268
  0.119  0.468  0.002  0.128  0.283
  0.473  0.113  0.002  0.279  0.133
    occupations:
  0.039  0.000  0.000  0.000 -0.000
  0.000  0.078 -0.000  0.033  0.005
  0.000 -0.000  0.078  0.005 -0.033
  0.000  0.033  0.005  0.066 -0.001
 -0.000  0.005 -0.033 -0.001  0.066
   spin  2
    eigenvalues: 
  0.989  0.990  0.990  0.994  0.994
    eigenvectors:
  0.999  0.000  0.001  0.000  0.000
  0.000  0.172  0.020  0.748  0.060
  0.000  0.016  0.179  0.064  0.741
  0.000  0.776  0.033  0.183  0.007
  0.000  0.035  0.768  0.005  0.191
    occupations:
  0.989  0.000 -0.000  0.000  0.000
  0.000  0.993  0.000  0.002  0.000
 -0.000  0.000  0.993  0.000 -0.002
  0.000  0.002  0.000  0.991  0.000
  0.000  0.000 -0.002  0.000  0.991
atomic mag. moment =    -4.630849
atom   20   Tr[ns(na)] (up, down, total) =   4.95750  0.32583  5.28333
   spin  1
    eigenvalues: 
  0.989  0.990  0.990  0.994  0.994
    eigenvectors:
  0.995  0.003  0.001  0.001  0.000
  0.000  0.000  0.194  0.781  0.025
  0.000  0.186  0.000  0.025  0.789
  0.001  0.008  0.798  0.184  0.010
  0.004  0.803  0.007  0.010  0.176
    occupations:
  0.989  0.000  0.000 -0.000  0.000
  0.000  0.993 -0.000 -0.002  0.000
  0.000 -0.000  0.993  0.000  0.002
 -0.000 -0.002  0.000  0.991 -0.000
  0.000  0.000  0.002 -0.000  0.991
   spin  2
    eigenvalues: 
  0.037  0.038  0.039  0.104  0.108
    eigenvectors:
  0.178  0.013  0.809  0.000  0.000
  0.155  0.254  0.012  0.480  0.099
  0.187  0.148  0.059  0.106  0.500
  0.153  0.413  0.013  0.376  0.044
  0.327  0.172  0.107  0.038  0.356
    occupations:
  0.039  0.001  0.001 -0.000 -0.000
  0.001  0.076  0.001 -0.033  0.004
  0.001  0.001  0.080  0.003  0.034
 -0.000 -0.033  0.003  0.066 -0.001
 -0.000  0.004  0.034 -0.001  0.065
atomic mag. moment =     4.631664
atom   21   Tr[ns(na)] (up, down, total) =   0.32378  4.95726  5.28104
   spin  1
    eigenvalues: 
  0.038  0.038  0.039  0.104  0.105
    eigenvectors:
  0.020  0.003  0.977  0.000  0.000
  0.014  0.404  0.003  0.540  0.039
  0.394  0.015  0.008  0.040  0.543
  0.058  0.515  0.005  0.355  0.066
  0.514  0.063  0.008  0.065  0.352
    occupations:
  0.039 -0.000 -0.000 -0.000  0.000
 -0.000  0.076 -0.000  0.033  0.005
 -0.000 -0.000  0.077  0.005 -0.033
 -0.000  0.033  0.005  0.066 -0.000
  0.000  0.005 -0.033 -0.000  0.066
   spin  2
    eigenvalues: 
  0.989  0.990  0.990  0.994  0.994
    eigenvectors:
  0.997  0.001  0.002  0.000  0.000
  0.000  0.175  0.003  0.710  0.113
  0.000  0.003  0.181  0.113  0.703
  0.001  0.821  0.001  0.139  0.039
  0.002  0.000  0.814  0.039  0.146
    occupations:
  0.989 -0.000 -0.000  0.000 -0.000
 -0.000  0.993  0.000  0.002  0.000
 -0.000  0.000  0.993  0.000 -0.002
  0.000  0.002  0.000  0.991 -0.000
 -0.000  0.000 -0.002 -0.000  0.991
atomic mag. moment =    -4.633488
atom   22   Tr[ns(na)] (up, down, total) =   4.95723  0.32511  5.28234
   spin  1
    eigenvalues: 
  0.989  0.990  0.990  0.994  0.994
    eigenvectors:
  0.999  0.001  0.000  0.000  0.000
  0.000  0.012  0.172  0.542  0.275
  0.000  0.170  0.013  0.277  0.540
  0.000  0.019  0.797  0.101  0.083
  0.001  0.798  0.019  0.080  0.102
    occupations:
  0.989  0.000  0.000 -0.000  0.000
  0.000  0.993 -0.000 -0.002  0.000
  0.000 -0.000  0.993  0.000  0.002
 -0.000 -0.002  0.000  0.991  0.000
  0.000  0.000  0.002  0.000  0.991
   spin  2
    eigenvalues: 
  0.038  0.038  0.039  0.105  0.106
    eigenvectors:
  0.004  0.016  0.981  0.000  0.000
  0.104  0.308  0.003  0.454  0.130
  0.308  0.101  0.006  0.129  0.456
  0.082  0.498  0.005  0.368  0.048
  0.502  0.077  0.006  0.048  0.367
    occupations:
  0.039  0.000  0.000 -0.000 -0.000
  0.000  0.077  0.000 -0.033  0.005
  0.000  0.000  0.077  0.005  0.033
 -0.000 -0.033  0.005  0.066 -0.000
 -0.000  0.005  0.033 -0.000  0.066
atomic mag. moment =     4.632113
atom   23   Tr[ns(na)] (up, down, total) =   0.32571  4.95729  5.28301
   spin  1
    eigenvalues: 
  0.037  0.037  0.039  0.105  0.108
    eigenvectors:
  0.071  0.199  0.730  0.000  0.000
  0.012  0.279  0.102  0.599  0.009
  0.335  0.044  0.008  0.014  0.598
  0.004  0.462  0.137  0.361  0.036
  0.579  0.016  0.024  0.025  0.356
    occupations:
  0.038 -0.000 -0.001  0.001  0.001
 -0.000  0.079 -0.001  0.033  0.004
 -0.001 -0.001  0.080  0.006 -0.034
  0.001  0.033  0.006  0.064 -0.002
  0.001  0.004 -0.034 -0.002  0.064
   spin  2
    eigenvalues: 
  0.989  0.990  0.990  0.994  0.994
    eigenvectors:
  0.747  0.249  0.004  0.000  0.000
  0.006  0.004  0.204  0.562  0.224
  0.044  0.122  0.007  0.235  0.591
  0.048  0.085  0.655  0.114  0.099
  0.155  0.541  0.130  0.089  0.086
    occupations:
  0.989 -0.000 -0.000  0.000 -0.000
 -0.000  0.993  0.000  0.002  0.000
 -0.000  0.000  0.993  0.000 -0.002
  0.000  0.002  0.000  0.991  0.000
 -0.000  0.000 -0.002  0.000  0.990
atomic mag. moment =    -4.631580
atom   24   Tr[ns(na)] (up, down, total) =   4.95814  0.32708  5.28522
   spin  1
    eigenvalues: 
  0.989  0.990  0.990  0.994  0.995
    eigenvectors:
  0.974  0.008  0.017  0.001  0.000
  0.001  0.096  0.098  0.521  0.284
  0.004  0.102  0.114  0.283  0.497
  0.000  0.497  0.310  0.140  0.053
  0.021  0.297  0.461  0.055  0.166
    occupations:
  0.989  0.000 -0.000 -0.000 -0.000
  0.000  0.993  0.000 -0.002  0.000
 -0.000  0.000  0.993  0.000  0.002
 -0.000 -0.002  0.000  0.991 -0.000
 -0.000  0.000  0.002 -0.000  0.991
   spin  2
    eigenvalues: 
  0.037  0.038  0.039  0.105  0.109
    eigenvectors:
  0.357  0.017  0.625  0.000  0.000
  0.003  0.355  0.024  0.479  0.139
  0.245  0.016  0.130  0.130  0.478
  0.000  0.607  0.013  0.254  0.126
  0.394  0.004  0.208  0.137  0.257
    occupations:
  0.038  0.000 -0.000 -0.001  0.001
  0.000  0.080 -0.001 -0.033  0.004
 -0.000 -0.001  0.080  0.005  0.034
 -0.001 -0.033  0.005  0.064  0.000
  0.001  0.004  0.034  0.000  0.065
atomic mag. moment =     4.631067
atom   25   Tr[ns(na)] (up, down, total) =   0.32924  4.95703  5.28627
   spin  1
    eigenvalues: 
  0.037  0.039  0.040  0.106  0.107
    eigenvectors:
  0.224  0.005  0.770  0.001  0.000
  0.125  0.264  0.030  0.300  0.280
  0.186  0.135  0.075  0.280  0.324
  0.243  0.295  0.041  0.283  0.139
  0.222  0.301  0.083  0.137  0.256
    occupations:
  0.039  0.001  0.000  0.002 -0.001
  0.001  0.078 -0.001  0.033  0.004
  0.000 -0.001  0.080  0.005 -0.033
  0.002  0.033  0.005  0.067  0.000
 -0.001  0.004 -0.033  0.000  0.065
   spin  2
    eigenvalues: 
  0.989  0.990  0.990  0.993  0.995
    eigenvectors:
  0.917  0.027  0.056  0.001  0.000
  0.005  0.188  0.004  0.143  0.660
  0.003  0.014  0.138  0.712  0.133
  0.049  0.675  0.085  0.038  0.152
  0.026  0.096  0.717  0.106  0.056
    occupations:
  0.989 -0.000 -0.000 -0.000  0.000
 -0.000  0.993 -0.000  0.002  0.000
 -0.000 -0.000  0.993 -0.000 -0.001
 -0.000  0.002 -0.000  0.991  0.000
  0.000  0.000 -0.001  0.000  0.990
atomic mag. moment =    -4.627787
atom   26   Tr[ns(na)] (up, down, total) =   4.95734  0.32759  5.28493
   spin  1
    eigenvalues: 
  0.989  0.990  0.990  0.994  0.994
    eigenvectors:
  0.918  0.076  0.005  0.000  0.000
  0.005  0.022  0.155  0.635  0.184
  0.009  0.130  0.032  0.195  0.633
  0.020  0.065  0.733  0.119  0.064
  0.048  0.708  0.075  0.050  0.119
    occupations:
  0.989  0.000  0.000  0.000 -0.000
  0.000  0.993 -0.000 -0.002  0.000
  0.000 -0.000  0.993  0.000  0.002
  0.000 -0.002  0.000  0.991  0.000
 -0.000  0.000  0.002  0.000  0.991
   spin  2
    eigenvalues: 
  0.037  0.038  0.040  0.105  0.108
    eigenvectors:
  0.019  0.366  0.614  0.000  0.000
  0.185  0.154  0.054  0.118  0.488
  0.208  0.092  0.106  0.479  0.115
  0.217  0.285  0.105  0.114  0.279
  0.370  0.103  0.121  0.288  0.118
    occupations:
  0.039  0.000 -0.000 -0.001 -0.001
  0.000  0.080  0.000 -0.034  0.005
 -0.000  0.000  0.078  0.003  0.033
 -0.001 -0.034  0.003  0.065 -0.000
 -0.001  0.005  0.033 -0.000  0.065
atomic mag. moment =     4.629754
atom   27   Tr[ns(na)] (up, down, total) =   0.33042  4.95684  5.28726
   spin  1
    eigenvalues: 
  0.037  0.039  0.040  0.106  0.108
    eigenvectors:
  0.096  0.052  0.851  0.000  0.000
  0.083  0.318  0.002  0.487  0.110
  0.278  0.069  0.063  0.102  0.487
  0.196  0.403  0.000  0.286  0.115
  0.347  0.158  0.083  0.125  0.287
    occupations:
  0.040 -0.001  0.000  0.000 -0.001
 -0.001  0.079  0.001  0.033  0.004
  0.000  0.001  0.079  0.005 -0.034
  0.000  0.033  0.005  0.066  0.001
 -0.001  0.004 -0.034  0.001  0.067
   spin  2
    eigenvalues: 
  0.989  0.990  0.990  0.993  0.994
    eigenvectors:
  0.964  0.029  0.007  0.000  0.001
  0.003  0.065  0.112  0.133  0.688
  0.001  0.099  0.063  0.699  0.137
  0.022  0.170  0.629  0.055  0.124
  0.012  0.637  0.189  0.113  0.050
    occupations:
  0.989 -0.000  0.000 -0.000 -0.000
 -0.000  0.993 -0.000  0.002  0.000
  0.000 -0.000  0.993  0.000 -0.001
 -0.000  0.002  0.000  0.991 -0.000
 -0.000  0.000 -0.001 -0.000  0.990
atomic mag. moment =    -4.626417
atom   28   Tr[ns(na)] (up, down, total) =   4.95681  0.32963  5.28644
   spin  1
    eigenvalues: 
  0.989  0.990  0.990  0.994  0.994
    eigenvectors:
  0.954  0.044  0.000  0.001  0.000
  0.003  0.118  0.060  0.246  0.573
  0.000  0.041  0.129  0.596  0.234
  0.021  0.497  0.298  0.032  0.152
  0.022  0.299  0.513  0.125  0.041
    occupations:
  0.989  0.000  0.000 -0.000  0.000
  0.000  0.993 -0.000 -0.002  0.000
  0.000 -0.000  0.993  0.000  0.002
 -0.000 -0.002  0.000  0.991  0.000
  0.000  0.000  0.002  0.000  0.991
   spin  2
    eigenvalues: 
  0.038  0.038  0.040  0.105  0.109
    eigenvectors:
  0.208  0.013  0.779  0.000  0.000
  0.159  0.235  0.024  0.318  0.263
  0.169  0.166  0.078  0.275  0.311
  0.163  0.406  0.015  0.270  0.146
  0.300  0.180  0.104  0.136  0.279
    occupations:
  0.039 -0.000 -0.000  0.001 -0.001
 -0.000  0.078  0.000 -0.033  0.005
 -0.000  0.000  0.079  0.003  0.034
  0.001 -0.033  0.003  0.067 -0.001
 -0.001  0.005  0.034 -0.001  0.067
atomic mag. moment =     4.627173
atom   29   Tr[ns(na)] (up, down, total) =   0.32714  4.95803  5.28517
   spin  1
    eigenvalues: 
  0.037  0.037  0.039  0.106  0.108
    eigenvectors:
  0.013  0.254  0.733  0.000  0.000
  0.369  0.006  0.019  0.043  0.563
  0.019  0.279  0.094  0.565  0.043
  0.523  0.040  0.043  0.006  0.388
  0.076  0.421  0.112  0.385  0.006
    occupations:
  0.039 -0.000 -0.000 -0.001  0.001
 -0.000  0.080  0.000  0.034  0.005
 -0.000  0.000  0.079  0.005 -0.033
 -0.001  0.034  0.005  0.065 -0.000
  0.001  0.005 -0.033 -0.000  0.064
   spin  2
    eigenvalues: 
  0.989  0.990  0.990  0.994  0.995
    eigenvectors:
  0.988  0.000  0.011  0.000  0.000
  0.000  0.202  0.008  0.753  0.038
  0.005  0.005  0.207  0.041  0.742
  0.000  0.734  0.055  0.187  0.024
  0.007  0.059  0.720  0.019  0.195
    occupations:
  0.989  0.000 -0.000  0.000 -0.000
  0.000  0.993  0.000  0.002  0.000
 -0.000  0.000  0.994  0.000 -0.002
  0.000  0.002  0.000  0.991 -0.000
 -0.000  0.000 -0.002 -0.000  0.991
atomic mag. moment =    -4.630893
atom   30   Tr[ns(na)] (up, down, total) =   4.95656  0.32844  5.28501
   spin  1
    eigenvalues: 
  0.989  0.990  0.990  0.994  0.994
    eigenvectors:
  0.758  0.047  0.194  0.000  0.001
  0.019  0.002  0.119  0.794  0.066
  0.013  0.167  0.000  0.067  0.753
  0.139  0.045  0.673  0.115  0.028
  0.070  0.739  0.013  0.024  0.153
    occupations:
  0.990 -0.000  0.000  0.000 -0.000
 -0.000  0.993 -0.000 -0.001  0.000
  0.000 -0.000  0.993  0.000  0.002
  0.000 -0.001  0.000  0.990  0.000
 -0.000  0.000  0.002  0.000  0.990
   spin  2
    eigenvalues: 
  0.038  0.038  0.040  0.105  0.107
    eigenvectors:
  0.042  0.636  0.321  0.000  0.000
  0.293  0.008  0.125  0.127  0.446
  0.114  0.135  0.163  0.464  0.125
  0.309  0.044  0.223  0.151  0.272
  0.241  0.176  0.168  0.258  0.156
    occupations:
  0.039  0.001 -0.000 -0.002 -0.000
  0.001  0.078 -0.000 -0.033  0.007
 -0.000 -0.000  0.078  0.004  0.032
 -0.002 -0.033  0.004  0.067 -0.001
 -0.000  0.007  0.032 -0.001  0.066
atomic mag. moment =     4.628119
atom   49   Tr[ns(na)] (up, down, total) =   0.32541  4.95739  5.28280
   spin  1
    eigenvalues: 
  0.038  0.038  0.039  0.105  0.106
    eigenvectors:
  0.008  0.030  0.962  0.000  0.000
  0.020  0.382  0.010  0.586  0.001
  0.386  0.017  0.007  0.001  0.589
  0.075  0.503  0.010  0.398  0.015
  0.511  0.068  0.012  0.015  0.395
    occupations:
  0.039  0.000 -0.000  0.000  0.000
  0.000  0.077  0.000  0.033  0.005
 -0.000  0.000  0.078  0.005 -0.033
  0.000  0.033  0.005  0.066  0.000
  0.000  0.005 -0.033  0.000  0.066
   spin  2
    eigenvalues: 
  0.989  0.990  0.990  0.994  0.994
    eigenvectors:
  0.999  0.001  0.000  0.000  0.000
  0.000  0.058  0.135  0.448  0.360
  0.000  0.128  0.065  0.367  0.439
  0.000  0.188  0.617  0.083  0.111
  0.001  0.625  0.182  0.102  0.090
    occupations:
  0.989 -0.000  0.000 -0.000 -0.000
 -0.000  0.993  0.000  0.002  0.000
  0.000  0.000  0.993  0.000 -0.002
 -0.000  0.002  0.000  0.991 -0.000
 -0.000  0.000 -0.002 -0.000  0.991
atomic mag. moment =    -4.631981
atom   50   Tr[ns(na)] (up, down, total) =   4.95729  0.32568  5.28297
   spin  1
    eigenvalues: 
  0.989  0.990  0.990  0.994  0.994
    eigenvectors:
  0.995  0.004  0.000  0.001  0.000
  0.000  0.171  0.013  0.597  0.219
  0.000  0.012  0.177  0.214  0.597
  0.005  0.724  0.087  0.148  0.036
  0.000  0.089  0.722  0.040  0.148
    occupations:
  0.989 -0.000  0.000  0.000  0.000
 -0.000  0.993  0.000 -0.002  0.000
  0.000  0.000  0.993  0.000  0.002
  0.000 -0.002  0.000  0.991  0.000
  0.000  0.000  0.002  0.000  0.991
   spin  2
    eigenvalues: 
  0.037  0.038  0.040  0.103  0.108
    eigenvectors:
  0.179  0.102  0.719  0.000  0.000
  0.325  0.000  0.076  0.001  0.598
  0.016  0.371  0.030  0.583  0.000
  0.478  0.003  0.116  0.005  0.398
  0.002  0.523  0.060  0.411  0.003
    occupations:
  0.039 -0.002  0.000  0.000  0.000
 -0.002  0.079  0.001 -0.034  0.004
  0.000  0.001  0.076  0.004  0.032
  0.000 -0.034  0.004  0.066  0.001
  0.000  0.004  0.032  0.001  0.065
atomic mag. moment =     4.631611
atom   51   Tr[ns(na)] (up, down, total) =   0.32497  4.95712  5.28209
   spin  1
    eigenvalues: 
  0.038  0.038  0.039  0.105  0.106
    eigenvectors:
  0.006  0.000  0.993  0.000  0.000
  0.174  0.243  0.001  0.067  0.515
  0.242  0.173  0.002  0.517  0.067
  0.320  0.261  0.001  0.018  0.400
  0.258  0.323  0.003  0.398  0.018
    occupations:
  0.039  0.000 -0.000  0.000  0.000
  0.000  0.077  0.000  0.033  0.004
 -0.000  0.000  0.077  0.005 -0.033
  0.000  0.033  0.005  0.066 -0.000
  0.000  0.004 -0.033 -0.000  0.066
   spin  2
    eigenvalues: 
  0.989  0.990  0.990  0.994  0.994
    eigenvectors:
  0.999  0.000  0.000  0.000  0.000
  0.000  0.017  0.171  0.137  0.675
  0.000  0.158  0.020  0.688  0.134
[...]
    12.2790  12.2947  12.3047  12.3095  12.3221  12.3280  12.3360  12.3411
    12.3570  12.3634  12.3985  12.4070  12.4176  12.4209  12.4321  12.4372
    12.4509  12.4748  12.4790  12.4927  12.5017  12.5135  12.5186  12.5235
    12.5313  12.5408  12.5453  12.5493  12.5619  12.5686  12.5790  12.5811
    12.5973  12.6008  12.6081  12.6161  12.6206  12.6229  12.6320  12.6372
    12.6467  12.6529  12.6559  12.6626  12.6675  12.6779  12.6846  12.6893
    12.6983  12.7096  12.7574  12.7706  12.7812  12.7889  12.8072  12.8206
    12.8225  12.8317  12.8407  12.8510  12.8545  12.8861  12.9021  12.9066
    12.9103  12.9189  12.9272  12.9386  12.9445  12.9597  12.9791  12.9798
    13.0000  13.0043  13.0184  13.0221  13.0288  13.0369  13.0496  13.0614
    13.0716  13.0789  13.0947  13.0999  13.1017  13.1181  13.1184  13.1231
    13.1312  13.1392  13.1498  13.1702  13.1830  13.2018  13.2072  13.2214
    14.0998  14.7973  15.8697  15.9391  16.0628  16.5002

     the Fermi energy is    11.3115 ev

!    total energy              =  -14154.68797338 Ry
     Harris-Foulkes estimate   =  -14154.68797309 Ry
     estimated scf accuracy    <       0.00000010 Ry

     The total energy is the sum of the following terms:

     one-electron contribution =   -7768.51914637 Ry
     hartree contribution      =    4452.82226606 Ry
     xc contribution           =   -1956.69630968 Ry
     ewald contribution        =   -8887.62538449 Ry
     Hubbard energy            =       5.33060109 Ry
     smearing contrib. (-TS)   =       0.00000000 Ry

     total magnetization       =     2.00 Bohr mag/cell
     absolute magnetization    =   198.62 Bohr mag/cell

     convergence has been achieved in  42 iterations

     Forces acting on atoms (cartesian axes, Ry/au):

     atom    1 type  1   force =     0.00009613   -0.00036190    0.00013904
     atom    2 type  1   force =     0.00004648   -0.00018636   -0.00003613
     atom    3 type  1   force =     0.00026270   -0.00019585   -0.00003554
     atom    4 type  1   force =    -0.00008535   -0.00016065    0.00023518
     atom    5 type  1   force =    -0.00002462    0.00011882    0.00019822
     atom    6 type  1   force =    -0.00010921   -0.00010188    0.00003371
     atom    7 type  1   force =     0.00019039   -0.00011995    0.00031282
     atom    8 type  1   force =     0.00013036    0.00029782    0.00005809
     atom    9 type  1   force =    -0.00035571   -0.00020545    0.00001882
     atom   10 type  1   force =     0.00013239    0.00031569   -0.00001495
     atom   11 type  1   force =    -0.00018324    0.00032520   -0.00013319
     atom   12 type  1   force =    -0.00020097   -0.00024385    0.00000007
     atom   13 type  1   force =     0.00008969    0.00007780    0.00004940
     atom   14 type  1   force =    -0.00023407   -0.00058217   -0.00004288
     atom   15 type  1   force =    -0.00028494   -0.00002271   -0.00013467
     atom   16 type  1   force =    -0.00005781    0.00004261   -0.00005687
     atom   17 type  1   force =    -0.00001919   -0.00027043   -0.00016509
     atom   18 type  1   force =    -0.00013796   -0.00043428    0.00006829
     atom   19 type  2   force =    -0.00001083   -0.00023269    0.00013270
     atom   20 type  3   force =    -0.00023158   -0.00024445   -0.00001842
     atom   21 type  2   force =    -0.00010127   -0.00002110   -0.00030537
     atom   22 type  3   force =     0.00010647   -0.00025415    0.00019008
     atom   23 type  2   force =     0.00036980    0.00020600   -0.00020652
     atom   24 type  3   force =    -0.00027551   -0.00006760    0.00035810
     atom   25 type  2   force =    -0.00027821   -0.00015483    0.00003218
     atom   26 type  3   force =    -0.00003042   -0.00051236    0.00003258
     atom   27 type  2   force =    -0.00015750    0.00024792    0.00001867
     atom   28 type  3   force =    -0.00001540   -0.00000108    0.00002701
     atom   29 type  2   force =     0.00016136    0.00039944    0.00019830
     atom   30 type  3   force =    -0.00013087   -0.00007312    0.00050751
     atom   31 type  1   force =    -0.00014174   -0.00027147    0.00003279
     atom   32 type  1   force =    -0.00014051    0.00004412   -0.00002568
     atom   33 type  1   force =    -0.00003914   -0.00009788    0.00005028
     atom   34 type  1   force =    -0.00002790   -0.00004115   -0.00008356
     atom   35 type  1   force =     0.00012594    0.00001336   -0.00007477
     atom   36 type  1   force =    -0.00021275   -0.00007525   -0.00020100
     atom   37 type  1   force =    -0.00068234    0.00062901   -0.00014624
     atom   38 type  1   force =    -0.00035051    0.00031769    0.00030099
     atom   39 type  1   force =     0.00010282    0.00013460   -0.00033534
     atom   40 type  1   force =    -0.00012955    0.00015639    0.00005886
     atom   41 type  1   force =     0.00022858   -0.00005732    0.00012531
     atom   42 type  1   force =     0.00020998   -0.00002514    0.00019285
     atom   43 type  1   force =    -0.00008758   -0.00020360   -0.00029278
     atom   44 type  1   force =     0.00000849    0.00018164    0.00017391
     atom   45 type  1   force =    -0.00007504   -0.00002098   -0.00013268
     atom   46 type  1   force =     0.00029801   -0.00048084    0.00026229
     atom   47 type  1   force =    -0.00008793   -0.00008412   -0.00025313
     atom   48 type  1   force =    -0.00030729    0.00048931    0.00021001
     atom   49 type  2   force =     0.00006426   -0.00032541   -0.00009784
     atom   50 type  3   force =     0.00045490   -0.00002764   -0.00008719
     atom   51 type  2   force =    -0.00001149   -0.00012982    0.00028422
     atom   52 type  3   force =    -0.00020139   -0.00000025    0.00020545
     atom   53 type  2   force =    -0.00026464    0.00020311   -0.00023113
     atom   54 type  3   force =    -0.00005175    0.00050999   -0.00017298
     atom   55 type  2   force =     0.00037045   -0.00008620    0.00007981
     atom   56 type  3   force =    -0.00001316   -0.00005142    0.00009876
     atom   57 type  2   force =    -0.00009160    0.00027217    0.00026144
     atom   58 type  3   force =    -0.00019711    0.00002656   -0.00010677
     atom   59 type  2   force =    -0.00051030    0.00018150    0.00031767
     atom   60 type  3   force =     0.00005215    0.00024173    0.00056799
     atom   61 type  1   force =     0.00008181    0.00004913   -0.00002967
     atom   62 type  1   force =    -0.00008386   -0.00010487    0.00006165
     atom   63 type  1   force =     0.00006336   -0.00007366   -0.00015025
     atom   64 type  1   force =    -0.00002463   -0.00024040   -0.00010731
     atom   65 type  1   force =     0.00011055   -0.00019827    0.00002837
     atom   66 type  1   force =     0.00008119   -0.00016188   -0.00005355
     atom   67 type  1   force =    -0.00008845    0.00000177    0.00002570
     atom   68 type  1   force =     0.00041625    0.00000036    0.00014282
     atom   69 type  1   force =    -0.00014524   -0.00002789    0.00028691
     atom   70 type  1   force =    -0.00022288    0.00013114   -0.00000866
     atom   71 type  1   force =     0.00035508    0.00021346   -0.00001409
     atom   72 type  1   force =    -0.00026075    0.00007679    0.00006633
     atom   73 type  1   force =    -0.00047520    0.00002400   -0.00049502
     atom   74 type  1   force =    -0.00014929    0.00055644   -0.00031928
     atom   75 type  1   force =    -0.00020340    0.00001977    0.00001651
     atom   76 type  1   force =     0.00020934    0.00003609   -0.00010745
     atom   77 type  1   force =    -0.00033841   -0.00011290    0.00014829
     atom   78 type  1   force =    -0.00039163   -0.00007763   -0.00016159
     atom   79 type  2   force =     0.00003983    0.00004844    0.00012332
     atom   80 type  3   force =     0.00016313   -0.00011750    0.00027360
     atom   81 type  2   force =     0.00017117   -0.00011755   -0.00022091
     atom   82 type  3   force =     0.00006226   -0.00005386    0.00018669
     atom   83 type  2   force =     0.00004012    0.00004771   -0.00025797
     atom   84 type  3   force =    -0.00056070    0.00034059    0.00002545
     atom   85 type  2   force =     0.00016375   -0.00000356    0.00031677
     atom   86 type  3   force =    -0.00040232    0.00010301    0.00002281
     atom   87 type  2   force =     0.00000980   -0.00024103    0.00043289
     atom   88 type  3   force =     0.00007032   -0.00011835   -0.00031696
     atom   89 type  2   force =    -0.00017097    0.00005215    0.00021374
     atom   90 type  3   force =    -0.00002154    0.00016013   -0.00000916
     atom   91 type  1   force =     0.00002461   -0.00015007   -0.00016073
     atom   92 type  1   force =     0.00005348   -0.00019799    0.00010588
     atom   93 type  1   force =     0.00021340   -0.00011437   -0.00002088
     atom   94 type  1   force =     0.00027112   -0.00010381   -0.00007675
     atom   95 type  1   force =     0.00006068   -0.00001171   -0.00026219
     atom   96 type  1   force =    -0.00014251   -0.00035059    0.00011528
     atom   97 type  1   force =     0.00019616   -0.00003290    0.00000814
     atom   98 type  1   force =    -0.00007209   -0.00070567   -0.00022081
     atom   99 type  1   force =     0.00003140    0.00068288    0.00011642
     atom  100 type  1   force =     0.00037276    0.00028658    0.00025737
     atom  101 type  1   force =    -0.00009851    0.00002430    0.00001743
     atom  102 type  1   force =     0.00068174    0.00006385   -0.00032068
     atom  103 type  1   force =     0.00043030    0.00014955   -0.00003775
     atom  104 type  1   force =     0.00036257    0.00040996   -0.00025237
     atom  105 type  1   force =     0.00034538    0.00041703    0.00015664
     atom  106 type  1   force =     0.00018255   -0.00000889   -0.00014452
     atom  107 type  1   force =    -0.00000051   -0.00010622   -0.00005433
     atom  108 type  1   force =    -0.00000162    0.00037375   -0.00071089
     atom  109 type  2   force =     0.00004404    0.00008503    0.00001974
     atom  110 type  3   force =     0.00006826    0.00016356   -0.00072871
     atom  111 type  2   force =    -0.00010050   -0.00034163   -0.00035878
     atom  112 type  3   force =    -0.00017169   -0.00024765   -0.00008386
     atom  113 type  4   force =    -0.00004132    0.00012213   -0.00018898
     atom  114 type  3   force =     0.00087644   -0.00020565    0.00007895
     atom  115 type  2   force =     0.00026220    0.00059445   -0.00043593
     atom  116 type  3   force =     0.00074211    0.00027344   -0.00005576
     atom  117 type  2   force =    -0.00001437   -0.00027201    0.00020282
     atom  118 type  3   force =     0.00004316   -0.00014692    0.00011840
     atom  119 type  2   force =     0.00006012   -0.00023414    0.00064884
     atom  120 type  4   force =    -0.00013105    0.00036496   -0.00029457

     Total force =     0.004530     Total SCF correction =     0.000330

     BFGS Geometry Optimization

     bfgs converged in   1 scf cycles and   0 bfgs steps
     (criteria: energy <  1.0E-04 Ry, force <  1.0E-03 Ry/Bohr)

     End of BFGS Geometry Optimization

     Final energy   =  -14154.6879733823 Ry
Begin final coordinates

ATOMIC_POSITIONS (crystal)
O        0.318706896   0.332943840   0.917294076
O        0.164760445   0.485266868   0.917896614
O        0.485618459   0.318969865   0.082704079
O        0.333001365   0.013948977   0.083111503
O        0.180747575   0.166387832   0.083311126
O        0.013365878   0.179827584   0.917061838
O        0.155570743   0.001216304   0.250022038
O       -0.003596388   0.149503494   0.249484301
O        0.314306905   0.485825629   0.416873640
O        0.165388263   0.180281888   0.415805919
O        0.015457547   0.335904742   0.415840789
O        0.342361485   0.344993768   0.249846665
O        0.485554690   0.166971522   0.584511056
O        0.328398240   0.312398877   0.582506590
O        0.152468491   0.152372013   0.751076680
O       -0.000244124   0.347664995   0.751197542
O        0.347065421   0.000141213   0.750842718
O        0.179960558   0.013369370   0.584176833
Fe1      0.165403485   0.331771566   0.020626137
Fe2      0.000225975  -0.001463727   0.144779449
Fe1      0.333281935   0.166532690   0.978274054
Fe2     -0.000174369  -0.000572413   0.855317241
Fe1     -0.001357948  -0.003518890   0.353530701
Fe2      0.328643899   0.163338689   0.480586158
Fe1      0.157798513   0.327826296   0.311442137
Fe2      0.333069539   0.165176427   0.186781941
Fe1      0.335442269   0.169948719   0.689590650
Fe2      0.166331121   0.333422658   0.813462833
Fe1      0.003362823   0.002651498   0.648303787
Fe2      0.166030689   0.330505808   0.523103675
O        0.819530650   0.333530471   0.917033230
O        0.666641242   0.485884524   0.917043571
O        0.985516901   0.318717736   0.082689365
O        0.832743246   0.013350727   0.083552164
O        0.680666866   0.167148693   0.082002701
O        0.514262665   0.179374261   0.918134780
O        0.649773657   0.009171223   0.248075726
O        0.498512516   0.153700792   0.250010103
O        0.820221725   0.483172510   0.415055223
O        0.666656488   0.181138625   0.416701976
O        0.513870960   0.330230112   0.417200570
O        0.849091370   0.347983662   0.248371676
O        0.985715947   0.167368477   0.585329861
O        0.835393520   0.320994965   0.583985833
O        0.652650940   0.152060697   0.751118585
O        0.499050557   0.342256399   0.754374614
O        0.847191822   0.000039210   0.750418378
O        0.680752370   0.021157181   0.584071728
Fe1      0.666808442   0.333666452   0.020660419
Fe2      0.500247410   0.000415169   0.144580183
Fe1      0.832809541   0.166519452   0.978251433
Fe2      0.500081050  -0.000276490   0.855549776
Fe1      0.499224341   0.000246034   0.353743022
Fe2      0.837573861   0.176700353   0.479472235
Fe1      0.669930120   0.328449005   0.311558169
Fe2      0.832450843   0.166608671   0.185608120
Fe1      0.834374801   0.168052397   0.690161890
Fe2      0.666600719   0.332565940   0.813157303
Fe1      0.495295293  -0.000339483   0.648216343
Fe2      0.666633646   0.333297065   0.523785887
O        0.319114689   0.832888442   0.916659377
O        0.166913785   0.985777207   0.916508962
O        0.485538717   0.818510274   0.083484760
O        0.331745347   0.513446585   0.081263500
O        0.180894753   0.666713354   0.082993578
O        0.014365610   0.681079071   0.916516686
O        0.151745706   0.498609414   0.248849987
O        0.001623889   0.652506526   0.249034740
O        0.319207006   0.986079948   0.416755688
O        0.164554653   0.681031442   0.416235953
O        0.015179200   0.833143838   0.417062301
O        0.347027520   0.846522095   0.249953727
O        0.481163813   0.670707770   0.581252815
O        0.331088770   0.820720192   0.584784836
O        0.152780555   0.652607877   0.750605364
O       -0.000926614   0.846602462   0.750311378
O        0.343581264   0.501210292   0.754895074
O        0.180502918   0.512994481   0.584351665
Fe1      0.167341091   0.833281633   0.020456662
Fe2     -0.000087267   0.499601533   0.143772306
Fe1      0.333353663   0.666011706   0.977785869
Fe2     -0.000062352   0.500172748   0.855159013
Fe1      0.001813077   0.502240049   0.352146558
Fe2      0.326299671   0.667416640   0.481530335
Fe1      0.167323075   0.834269520   0.311721263
Fe2      0.331217552   0.666162191   0.186745481
Fe1      0.334132443   0.664456518   0.690271613
Fe2      0.165889653   0.832989927   0.811804298
Fe1      0.001744309   0.501364280   0.646924017
Fe2      0.167703900   0.835821927   0.521583906
O        0.819769126   0.834036201   0.917307372
O        0.666513854   0.985584540   0.917089065
O        0.986807894   0.818634038   0.081959082
O        0.833282215   0.514006695   0.083035148
O        0.681969850   0.667095243   0.082535355
O        0.514760202   0.680776072   0.917078397
O        0.652403194   0.496282315   0.249914151
O        0.497342339   0.645709058   0.245260674
O        0.825406253   0.994739841   0.420055268
O        0.674488343   0.683369217   0.417376369
O        0.508201476   0.831482472   0.417292304
O        0.858492234   0.847536744   0.248412891
O        0.990181839   0.667821187   0.584126250
O        0.837459504   0.819972125   0.583915291
O        0.653497739   0.653817865   0.751364859
O        0.500285651   0.847653733   0.750406103
O        0.847961324   0.499657486   0.751069637
O        0.691525224   0.516480601   0.582333067
Fe1      0.666498052   0.833567284   0.021166046
Fe2      0.499124776   0.500727581   0.138830054
Fe1      0.833501942   0.666787897   0.977966609
Fe2      0.499454868   0.498995619   0.852706655
Sn       0.499417736   0.501057981   0.351687897
Fe2      0.841412328   0.661148645   0.481183325
Fe1      0.673878898   0.844417536   0.302710401
Fe2      0.836084651   0.667472651   0.186663021
Fe1      0.829514244   0.662630381   0.689490375
Fe2      0.666535088   0.832676328   0.812927958
Fe1      0.496279691   0.497175502   0.645581647
Sn       0.667955184   0.836954283   0.517855385
End final coordinates



     Writing output data file fe2o3.save
 
     init_run     :     37.29s CPU     38.10s WALL (       1 calls)
     electrons    :   4933.86s CPU   4994.45s WALL (       1 calls)
     forces       :     55.46s CPU     55.81s WALL (       1 calls)

     Called by init_run:
     wfcinit      :     32.04s CPU     32.37s WALL (       1 calls)
     potinit      :      0.94s CPU      0.97s WALL (       1 calls)

     Called by electrons:
     c_bands      :   4529.46s CPU   4572.22s WALL (      42 calls)
     sum_band     :    338.19s CPU    347.83s WALL (      42 calls)
     v_of_rho     :     11.17s CPU     11.52s WALL (      43 calls)
     newd         :     51.08s CPU     58.85s WALL (      43 calls)
     mix_rho      :      2.91s CPU      3.04s WALL (      42 calls)

     Called by c_bands:
     init_us_2    :      8.96s CPU      9.02s WALL (     176 calls)
     cegterg      :   4010.50s CPU   4049.66s WALL (      84 calls)

     Called by sum_band:
     sum_band:bec :      1.08s CPU      1.08s WALL (      84 calls)
     addusdens    :     90.91s CPU     99.95s WALL (      42 calls)

     Called by *egterg:
     h_psi        :   1074.43s CPU   1075.00s WALL (     414 calls)
     s_psi        :    276.59s CPU    276.44s WALL (     418 calls)
     g_psi        :      2.34s CPU      2.34s WALL (     328 calls)
     cdiaghg      :   2060.21s CPU   2081.07s WALL (     412 calls)

     Called by h_psi:
     h_psi:pot    :    843.50s CPU    844.10s WALL (     414 calls)
     h_psi:calbec :    269.42s CPU    269.39s WALL (     414 calls)
     vloc_psi     :    303.57s CPU    304.29s WALL (     414 calls)
     add_vuspsi   :    270.50s CPU    270.42s WALL (     414 calls)
     vhpsi        :    225.40s CPU    225.36s WALL (     414 calls)

     General routines
     calbec       :    489.90s CPU    489.90s WALL (    3170 calls)
     fft          :      5.75s CPU      6.51s WALL (    1342 calls)
     ffts         :      0.26s CPU      0.28s WALL (     170 calls)
     fftw         :    290.64s CPU    291.37s WALL (  327342 calls)
     interpolate  :      1.26s CPU      1.36s WALL (     170 calls)
     davcio       :      0.00s CPU      0.02s WALL (       2 calls)
 
     Parallel routines
     fft_scatter  :     88.55s CPU     89.49s WALL (  328854 calls)

     Hubbard U routines
     new_ns       :     19.80s CPU     19.85s WALL (      42 calls)
     vhpsi        :    225.40s CPU    225.36s WALL (     414 calls)
     force_hub    :     37.66s CPU     37.69s WALL (       1 calls)
 
     PWSCF        :     1h24m CPU        1h25m WALL

 
   This run was terminated on:   6:23: 2   9Oct2019            

=------------------------------------------------------------------------------=
   JOB DONE.
=------------------------------------------------------------------------------=
