
     Program PWSCF v.6.1 (svn rev. 13369) starts on 10Feb2021 at 22:58:44 

     This program is part of the open-source Quantum ESPRESSO suite
     for quantum simulation of materials; please cite
         "P. Giannozzi et al., J. Phys.:Condens. Matter 21 395502 (2009);
          URL http://www.quantum-espresso.org", 
     in publications or presentations arising from this work. More details at
     http://www.quantum-espresso.org/quote

     Parallel version (MPI), running on   160 processors
     K-points division:     npool     =       2
     R & G space division:  proc/nbgrp/npool/nimage =      80
     Reading input from scf.in
Warning: card &CELL ignored
Warning: card / ignored
Warning: card &IONS ignored
Warning: card / ignored

     Current dimensions of program PWSCF are:
     Max number of different atomic species (ntypx) = 10
     Max number of k-points (npk) = 120000
     Max angular momentum in pseudopotentials (lmaxx) =  3

     Subspace diagonalization in iterative solution of the eigenvalue problem:
     a serial algorithm will be used

 
     Parallelization info
     --------------------
     sticks:   dense  smooth     PW     G-vecs:    dense   smooth      PW
     Min         153     153     38                14461    14461    1806
     Max         154     154     39                14464    14464    1813
     Sum       12259   12259   3067              1156971  1156971  144701
 


     bravais-lattice index     =            0
     lattice parameter (alat)  =      28.4287  a.u.
     unit-cell volume          =   20997.3881 (a.u.)^3
     number of atoms/cell      =           72
     number of atomic types    =            3
     number of electrons       =       288.00 (up: 144.00, down: 144.00)
     number of Kohn-Sham states=          168
     kinetic-energy cutoff     =      55.0000  Ry
     charge density cutoff     =     220.0000  Ry
     convergence threshold     =      1.0E-08
     mixing beta               =       0.7000
     number of iterations used =            8  plain     mixing
     Exchange-correlation      = PBE ( 1  4  3  4 0 0)

     celldm(1)=  28.428666  celldm(2)=   0.000000  celldm(3)=   0.000000
     celldm(4)=   0.000000  celldm(5)=   0.000000  celldm(6)=   0.000000

     crystal axes: (cart. coord. in units of alat)
               a(1) = (   1.000000   0.000000   0.000000 )  
               a(2) = (  -0.499999   0.866026   0.000000 )  
               a(3) = (   0.000000   0.000000   1.055273 )  

     reciprocal axes: (cart. coord. in units 2 pi/alat)
               b(1) = (  1.000000  0.577349  0.000000 )  
               b(2) = (  0.000000  1.154700  0.000000 )  
               b(3) = (  0.000000  0.000000  0.947622 )  


     PseudoPot. # 1 for B  read from file:
     ~/pseudo-ONCV-proj/B_ONCV_PBE-1.0.upf
     MD5 check sum: Not computed, couldn't open file
     Pseudo is Norm-conserving, Zval =  3.0
     Generated using ONCVPSP code by D. R. Hamann
     Using radial grid of 1534 points,  4 beta functions with: 
                l(1) =   0
                l(2) =   0
                l(3) =   1
                l(4) =   1

     PseudoPot. # 2 for N  read from file:
     ~/pseudo-ONCV-proj/N_ONCV_PBE-1.0.upf
     MD5 check sum: Not computed, couldn't open file
     Pseudo is Norm-conserving, Zval =  5.0
     Generated using ONCVPSP code by D. R. Hamann
     Using radial grid of 1058 points,  4 beta functions with: 
                l(1) =   0
                l(2) =   0
                l(3) =   1
                l(4) =   1

     PseudoPot. # 3 for C  read from file:
     ~/pseudo-ONCV-proj/C_ONCV_PBE-1.0.upf
     MD5 check sum: Not computed, couldn't open file
     Pseudo is Norm-conserving, Zval =  4.0
     Generated using ONCVPSP code by D. R. Hamann
     Using radial grid of 1248 points,  4 beta functions with: 
                l(1) =   0
                l(2) =   0
                l(3) =   1
                l(4) =   1

     atomic species   valence    mass     pseudopotential
        B              3.00    10.81100     B ( 1.00)
        N              5.00    14.00674     N ( 1.00)
        C              4.00    12.01070     C ( 1.00)

     Starting magnetic structure 
     atomic species   magnetization
        B            1.000
        N            0.000
        C            0.000

      2 Sym. Ops. (no inversion) found


                                    s                        frac. trans.

      isym =  1     identity                                     

 cryst.   s( 1) = (     1          0          0      )
                  (     0          1          0      )
                  (     0          0          1      )

 cart.    s( 1) = (  1.0000000 -0.0000000  0.0000000 )
                  (  0.0000000  1.0000000  0.0000000 )
                  (  0.0000000  0.0000000  1.0000000 )


      isym =  2     inv. 180 deg rotation - cart. axis [0,0,1]   

 cryst.   s( 2) = (     1          0          0      )
                  (     0          1          0      )
                  (     0          0         -1      )

 cart.    s( 2) = (  1.0000000 -0.0000000  0.0000000 )
                  (  0.0000000  1.0000000  0.0000000 )
                  (  0.0000000  0.0000000 -1.0000000 )


   Cartesian axes

     site n.     atom                  positions (alat units)
         1           B   tau(   1) = (  -0.0001376   0.0960713   0.5276366  )
         2           B   tau(   2) = (  -0.0832772   0.2406522   0.5276366  )
         3           B   tau(   3) = (  -0.1665607   0.3849038   0.5276366  )
         4           B   tau(   4) = (  -0.2502013   0.5291955   0.5276366  )
         5           B   tau(   5) = (  -0.3332508   0.6735960   0.5276366  )
         6           B   tau(   6) = (  -0.4166072   0.8179739   0.5276366  )
         7           B   tau(   7) = (   0.1666511   0.0960555   0.5276366  )
         8           B   tau(   8) = (   0.0832698   0.2404275   0.5276366  )
         9           B   tau(   9) = (   0.0006141   0.3852546   0.5276366  )
        10           B   tau(  10) = (  -0.0834816   0.5292502   0.5276366  )
        11           B   tau(  11) = (  -0.1668205   0.6736467   0.5276366  )
        12           B   tau(  12) = (  -0.2500114   0.8179061   0.5276366  )
        13           B   tau(  13) = (   0.3334844   0.0959598   0.5276366  )
        14           B   tau(  14) = (   0.2504297   0.2394760   0.5276366  )
        15           B   tau(  15) = (   0.1679736   0.3834878   0.5276366  )
        16           B   tau(  16) = (   0.0827639   0.5310756   0.5276366  )
        17           B   tau(  17) = (  -0.0007255   0.6744908   0.5276366  )
        18           B   tau(  18) = (  -0.0834865   0.8181765   0.5276366  )
        19           B   tau(  19) = (   0.5000725   0.0962667   0.5276366  )
        20           B   tau(  20) = (   0.4165011   0.2408981   0.5276366  )
        21           B   tau(  21) = (   0.3321741   0.3851587   0.5276366  )
        22           B   tau(  22) = (   0.1663114   0.6724421   0.5276366  )
        23           B   tau(  23) = (   0.0835419   0.8176019   0.5276366  )
        24           B   tau(  24) = (   0.6666788   0.0961407   0.5276366  )
        25           B   tau(  25) = (   0.5832666   0.2406151   0.5276366  )
        26           B   tau(  26) = (   0.4997045   0.3850150   0.5276366  )
        27           B   tau(  27) = (   0.4164487   0.5300756   0.5276366  )
        28           B   tau(  28) = (   0.3339502   0.6729674   0.5276366  )
        29           B   tau(  29) = (   0.2499523   0.8175996   0.5276366  )
        30           B   tau(  30) = (   0.8332579   0.0961326   0.5276366  )
        31           B   tau(  31) = (   0.7499672   0.2405435   0.5276366  )
        32           B   tau(  32) = (   0.6665494   0.3848810   0.5276366  )
        33           B   tau(  33) = (   0.5830020   0.5292654   0.5276366  )
        34           B   tau(  34) = (   0.5004900   0.6738580   0.5276366  )
        35           B   tau(  35) = (   0.4165255   0.8176120   0.5276366  )
        36           N   tau(  36) = (   0.0832540   0.0479742   0.5276366  )
        37           N   tau(  37) = (  -0.0001402   0.1921552   0.5276366  )
        38           N   tau(  38) = (  -0.0831393   0.3368995   0.5276366  )
        39           N   tau(  39) = (  -0.1669916   0.4811511   0.5276366  )
        40           N   tau(  40) = (  -0.2501586   0.6254634   0.5276366  )
        41           N   tau(  41) = (  -0.3333813   0.7697725   0.5276366  )
        42           N   tau(  42) = (   0.2500486   0.0480021   0.5276366  )
        43           N   tau(  43) = (   0.1667528   0.1920394   0.5276366  )
        44           N   tau(  44) = (   0.0836397   0.3362392   0.5276366  )
        45           N   tau(  45) = (  -0.0003214   0.4816646   0.5276366  )
        46           N   tau(  46) = (  -0.0836452   0.6257427   0.5276366  )
        47           N   tau(  47) = (  -0.1667369   0.7698978   0.5276366  )
        48           N   tau(  48) = (   0.4167736   0.0481741   0.5276366  )
        49           N   tau(  49) = (   0.3337539   0.1919855   0.5276366  )
        50           N   tau(  50) = (   0.2508697   0.3352572   0.5276366  )
        51           N   tau(  51) = (   0.0824433   0.6269811   0.5276366  )
        52           N   tau(  52) = (  -0.0001913   0.7703969   0.5276366  )
        53           N   tau(  53) = (   0.5834877   0.0479283   0.5276366  )
        54           N   tau(  54) = (   0.4999180   0.1926757   0.5276366  )
        55           N   tau(  55) = (   0.4161354   0.3376506   0.5276366  )
        56           N   tau(  56) = (   0.3316126   0.4833625   0.5276366  )
        57           N   tau(  57) = (   0.2510775   0.6228537   0.5276366  )
        58           N   tau(  58) = (   0.1671490   0.7689088   0.5276366  )
        59           N   tau(  59) = (   0.7499695   0.0477947   0.5276366  )
        60           N   tau(  60) = (   0.6665889   0.1924050   0.5276366  )
        61           N   tau(  61) = (   0.5830434   0.3369201   0.5276366  )
        62           N   tau(  62) = (   0.4991631   0.4813185   0.5276366  )
        63           N   tau(  63) = (   0.4171094   0.6257182   0.5276366  )
        64           N   tau(  64) = (   0.3330828   0.7689788   0.5276366  )
        65           N   tau(  65) = (   0.9164591   0.0477403   0.5276366  )
        66           N   tau(  66) = (   0.8332687   0.1923550   0.5276366  )
        67           N   tau(  67) = (   0.7498857   0.3367791   0.5276366  )
        68           N   tau(  68) = (   0.6662412   0.4811315   0.5276366  )
        69           N   tau(  69) = (   0.5833320   0.6254553   0.5276366  )
        70           N   tau(  70) = (   0.4999931   0.7698027   0.5276366  )
        71           C   tau(  71) = (   0.2500790   0.5292832   0.5276366  )
        72           C   tau(  72) = (   0.1705781   0.4833833   0.5276366  )

   Crystallographic axes

     site n.     atom                  positions (cryst. coord.)
         1           B   tau(   1) = (  0.0553291  0.1109335  0.5000000  )
         2           B   tau(   2) = (  0.0556630  0.2778810  0.5000000  )
         3           B   tau(   3) = (  0.0556630  0.4444483  0.5000000  )
         4           B   tau(   4) = (  0.0553291  0.6110619  0.5000000  )
         5           B   tau(   5) = (  0.0556490  0.7778011  0.5000000  )
         6           B   tau(   6) = (  0.0556490  0.9445142  0.5000000  )
         7           B   tau(   7) = (  0.2221086  0.1109152  0.5000000  )
         8           B   tau(   8) = (  0.2220803  0.2776216  0.5000000  )
         9           B   tau(   9) = (  0.2230404  0.4448533  0.5000000  )
        10           B   tau(  10) = (  0.2220803  0.6111250  0.5000000  )
        11           B   tau(  11) = (  0.2221086  0.7778597  0.5000000  )
        12           B   tau(  12) = (  0.2222056  0.9444360  0.5000000  )
        13           B   tau(  13) = (  0.3888867  0.1108048  0.5000000  )
        14           B   tau(  14) = (  0.3886908  0.2765229  0.5000000  )
        15           B   tau(  15) = (  0.3893798  0.4428133  0.5000000  )
        16           B   tau(  16) = (  0.3893798  0.6132329  0.5000000  )
        17           B   tau(  17) = (  0.3886908  0.7788343  0.5000000  )
        18           B   tau(  18) = (  0.3888867  0.9447482  0.5000000  )
        19           B   tau(  19) = (  0.5556520  0.1111592  0.5000000  )
        20           B   tau(  20) = (  0.5555833  0.2781650  0.5000000  )
        21           B   tau(  21) = (  0.5545450  0.4447426  0.5000000  )
        22           B   tau(  22) = (  0.5545450  0.7764687  0.5000000  )
        23           B   tau(  23) = (  0.5555833  0.9440847  0.5000000  )
        24           B   tau(  24) = (  0.7221855  0.1110136  0.5000000  )
        25           B   tau(  25) = (  0.7221855  0.2778382  0.5000000  )
        26           B   tau(  26) = (  0.7219924  0.4445767  0.5000000  )
        27           B   tau(  27) = (  0.7224871  0.6120782  0.5000000  )
        28           B   tau(  28) = (  0.7224871  0.7770753  0.5000000  )
        29           B   tau(  29) = (  0.7219924  0.9440821  0.5000000  )
        30           B   tau(  30) = (  0.8887599  0.1110043  0.5000000  )
        31           B   tau(  31) = (  0.8888447  0.2777555  0.5000000  )
        32           B   tau(  32) = (  0.8887599  0.4444220  0.5000000  )
        33           B   tau(  33) = (  0.8885727  0.6111427  0.5000000  )
        34           B   tau(  34) = (  0.8895410  0.7781037  0.5000000  )
        35           B   tau(  35) = (  0.8885727  0.9440964  0.5000000  )
        36           N   tau(  36) = (  0.1109518  0.0553957  0.5000000  )
        37           N   tau(  37) = (  0.1108004  0.2218816  0.5000000  )
        38           N   tau(  38) = (  0.1113692  0.3890177  0.5000000  )
        39           N   tau(  39) = (  0.1108004  0.5555851  0.5000000  )
        40           N   tau(  40) = (  0.1109518  0.7222224  0.5000000  )
        41           N   tau(  41) = (  0.1110459  0.8888561  0.5000000  )
        42           N   tau(  42) = (  0.2777626  0.0554281  0.5000000  )
        43           N   tau(  43) = (  0.2776265  0.2217479  0.5000000  )
        44           N   tau(  44) = (  0.2777670  0.3882554  0.5000000  )
        45           N   tau(  45) = (  0.2777670  0.5561779  0.5000000  )
        46           N   tau(  46) = (  0.2776265  0.7225449  0.5000000  )
        47           N   tau(  47) = (  0.2777626  0.8890008  0.5000000  )
        48           N   tau(  48) = (  0.4445869  0.0556266  0.5000000  )
        49           N   tau(  49) = (  0.4445964  0.2216856  0.5000000  )
        50           N   tau(  50) = (  0.4444300  0.3871214  0.5000000  )
        51           N   tau(  51) = (  0.4444300  0.7239749  0.5000000  )
        52           N   tau(  52) = (  0.4445964  0.8895771  0.5000000  )
        53           N   tau(  53) = (  0.6111591  0.0553428  0.5000000  )
        54           N   tau(  54) = (  0.6111591  0.2224826  0.5000000  )
        55           N   tau(  55) = (  0.6110775  0.3898851  0.5000000  )
        56           N   tau(  56) = (  0.6106813  0.5581386  0.5000000  )
        57           N   tau(  57) = (  0.6106813  0.7192090  0.5000000  )
        58           N   tau(  58) = (  0.6110775  0.8878587  0.5000000  )
        59           N   tau(  59) = (  0.7775637  0.0551885  0.5000000  )
        60           N   tau(  60) = (  0.7776737  0.2221700  0.5000000  )
        61           N   tau(  61) = (  0.7775637  0.3890415  0.5000000  )
        62           N   tau(  62) = (  0.7770517  0.5557784  0.5000000  )
        63           N   tau(  63) = (  0.7783671  0.7225167  0.5000000  )
        64           N   tau(  64) = (  0.7770517  0.8879396  0.5000000  )
        65           N   tau(  65) = (  0.9440218  0.0551257  0.5000000  )
        66           N   tau(  66) = (  0.9443246  0.2221122  0.5000000  )
        67           N   tau(  67) = (  0.9443246  0.3888787  0.5000000  )
        68           N   tau(  68) = (  0.9440218  0.5555625  0.5000000  )
        69           N   tau(  69) = (  0.9444378  0.7222130  0.5000000  )
        70           N   tau(  70) = (  0.9444378  0.8888910  0.5000000  )
        71           C   tau(  71) = (  0.5556599  0.6111631  0.5000000  )
        72           C   tau(  72) = (  0.4496589  0.5581626  0.5000000  )

     number of k points=     1
                       cart. coord. in units 2pi/alat
        k(    1) = (   0.0000000   0.0000000   0.0000000), wk =   1.0000000

                       cryst. coord.
        k(    1) = (   0.0000000   0.0000000   0.0000000), wk =   1.0000000

     Dense  grid:  1156971 G-vectors     FFT dimensions: ( 135, 135, 144)

     Occupations read from input 

      Spin-up

        1.0000   1.0000   1.0000   1.0000   1.0000   1.0000   1.0000   1.0000
        1.0000   1.0000   1.0000   1.0000   1.0000   1.0000   1.0000   1.0000
        1.0000   1.0000   1.0000   1.0000   1.0000   1.0000   1.0000   1.0000
        1.0000   1.0000   1.0000   1.0000   1.0000   1.0000   1.0000   1.0000
        1.0000   1.0000   1.0000   1.0000   1.0000   1.0000   1.0000   1.0000
        1.0000   1.0000   1.0000   1.0000   1.0000   1.0000   1.0000   1.0000
        1.0000   1.0000   1.0000   1.0000   1.0000   1.0000   1.0000   1.0000
        1.0000   1.0000   1.0000   1.0000   1.0000   1.0000   1.0000   1.0000
        1.0000   1.0000   1.0000   1.0000   1.0000   1.0000   1.0000   1.0000
        1.0000   1.0000   1.0000   1.0000   1.0000   1.0000   1.0000   1.0000
        1.0000   1.0000   1.0000   1.0000   1.0000   1.0000   1.0000   1.0000
        1.0000   1.0000   1.0000   1.0000   1.0000   1.0000   1.0000   1.0000
        1.0000   1.0000   1.0000   1.0000   1.0000   1.0000   1.0000   1.0000
        1.0000   1.0000   1.0000   1.0000   1.0000   1.0000   1.0000   1.0000
        1.0000   1.0000   1.0000   1.0000   1.0000   1.0000   1.0000   1.0000
        1.0000   1.0000   1.0000   1.0000   1.0000   1.0000   1.0000   1.0000
        1.0000   1.0000   1.0000   1.0000   1.0000   1.0000   1.0000   1.0000
        1.0000   1.0000   1.0000   1.0000   1.0000   1.0000   1.0000   0.0000
        1.0000   0.0000   0.0000   0.0000   0.0000   0.0000   0.0000   0.0000
        0.0000   0.0000   0.0000   0.0000   0.0000   0.0000   0.0000   0.0000
        0.0000   0.0000   0.0000   0.0000   0.0000   0.0000   0.0000   0.0000

      Spin-down

        1.0000   1.0000   1.0000   1.0000   1.0000   1.0000   1.0000   1.0000
        1.0000   1.0000   1.0000   1.0000   1.0000   1.0000   1.0000   1.0000
        1.0000   1.0000   1.0000   1.0000   1.0000   1.0000   1.0000   1.0000
        1.0000   1.0000   1.0000   1.0000   1.0000   1.0000   1.0000   1.0000
        1.0000   1.0000   1.0000   1.0000   1.0000   1.0000   1.0000   1.0000
        1.0000   1.0000   1.0000   1.0000   1.0000   1.0000   1.0000   1.0000
        1.0000   1.0000   1.0000   1.0000   1.0000   1.0000   1.0000   1.0000
        1.0000   1.0000   1.0000   1.0000   1.0000   1.0000   1.0000   1.0000
        1.0000   1.0000   1.0000   1.0000   1.0000   1.0000   1.0000   1.0000
        1.0000   1.0000   1.0000   1.0000   1.0000   1.0000   1.0000   1.0000
        1.0000   1.0000   1.0000   1.0000   1.0000   1.0000   1.0000   1.0000
        1.0000   1.0000   1.0000   1.0000   1.0000   1.0000   1.0000   1.0000
        1.0000   1.0000   1.0000   1.0000   1.0000   1.0000   1.0000   1.0000
        1.0000   1.0000   1.0000   1.0000   1.0000   1.0000   1.0000   1.0000
        1.0000   1.0000   1.0000   1.0000   1.0000   1.0000   1.0000   1.0000
        1.0000   1.0000   1.0000   1.0000   1.0000   1.0000   1.0000   1.0000
        1.0000   1.0000   1.0000   1.0000   1.0000   1.0000   1.0000   1.0000
        1.0000   1.0000   1.0000   1.0000   1.0000   1.0000   1.0000   1.0000
        0.0000   0.0000   0.0000   0.0000   0.0000   0.0000   0.0000   0.0000
        0.0000   0.0000   0.0000   0.0000   0.0000   0.0000   0.0000   0.0000
        0.0000   0.0000   0.0000   0.0000   0.0000   0.0000   0.0000   0.0000

     Estimated max dynamical RAM per process >      68.84MB

     Estimated total allocated dynamical RAM >   11014.86MB
     Generating pointlists ...
     new r_m :   0.0394 (alat units)  1.1187 (a.u.) for type    1
     new r_m :   0.0386 (alat units)  1.0973 (a.u.) for type    2
     new r_m :   0.0379 (alat units)  1.0765 (a.u.) for type    3

     Initial potential from superposition of free atoms
     Check: negative starting charge=(component1):   -0.001385
     Check: negative starting charge=(component2):   -0.001913

     starting charge  287.99093, renormalised to  288.00000

     negative rho (up, down):  1.386E-03 1.913E-03
     Starting wfc are  288 randomized atomic wfcs

     total cpu time spent up to now is        3.1 secs

     per-process dynamical memory:    91.4 Mb

     Self-consistent Calculation

     iteration #  1     ecut=    55.00 Ry     beta=0.70
     Davidson diagonalization with overlap
     ethr =  1.00E-02,  avg # of iterations =  2.5

     negative rho (up, down):  1.551E-04 3.038E-04

     total cpu time spent up to now is        4.5 secs

     total energy              =    -916.50803487 Ry
     Harris-Foulkes estimate   =    -922.43401478 Ry
     estimated scf accuracy    <      16.96809269 Ry

     total magnetization       =    -0.00 Bohr mag/cell
     absolute magnetization    =    19.41 Bohr mag/cell

     iteration #  2     ecut=    55.00 Ry     beta=0.70
     Davidson diagonalization with overlap
     ethr =  5.89E-03,  avg # of iterations =  3.0

     negative rho (up, down):  6.508E-05 1.189E-04

     total cpu time spent up to now is        5.9 secs

     total energy              =    -921.21931292 Ry
     Harris-Foulkes estimate   =    -925.71295145 Ry
     estimated scf accuracy    <      10.35771238 Ry

     total magnetization       =     0.00 Bohr mag/cell
     absolute magnetization    =    15.06 Bohr mag/cell

     iteration #  3     ecut=    55.00 Ry     beta=0.70
     Davidson diagonalization with overlap
     ethr =  3.60E-03,  avg # of iterations =  2.5

     negative rho (up, down):  1.738E-05 3.347E-05

     total cpu time spent up to now is        7.1 secs

     total energy              =    -923.09013821 Ry
     Harris-Foulkes estimate   =    -923.38382376 Ry
     estimated scf accuracy    <       0.91168926 Ry

     total magnetization       =    -0.00 Bohr mag/cell
     absolute magnetization    =    10.22 Bohr mag/cell

     iteration #  4     ecut=    55.00 Ry     beta=0.70
     Davidson diagonalization with overlap
     ethr =  3.17E-04,  avg # of iterations = 14.0

     negative rho (up, down):  4.615E-09 1.005E-08

     total cpu time spent up to now is       10.1 secs

     total energy              =    -923.49202467 Ry
     Harris-Foulkes estimate   =    -923.78137357 Ry
     estimated scf accuracy    <       1.25196450 Ry

     total magnetization       =     0.00 Bohr mag/cell
     absolute magnetization    =     7.96 Bohr mag/cell

     iteration #  5     ecut=    55.00 Ry     beta=0.70
     Davidson diagonalization with overlap
     ethr =  3.17E-04,  avg # of iterations =  7.5

     negative rho (up, down):  6.591E-09 1.241E-08

     total cpu time spent up to now is       11.6 secs

     total energy              =    -923.64941563 Ry
     Harris-Foulkes estimate   =    -923.65044291 Ry
     estimated scf accuracy    <       0.04132697 Ry

     total magnetization       =     0.00 Bohr mag/cell
     absolute magnetization    =     5.57 Bohr mag/cell

     iteration #  6     ecut=    55.00 Ry     beta=0.70
     Davidson diagonalization with overlap
     ethr =  1.43E-05,  avg # of iterations =  9.5

     total cpu time spent up to now is       14.5 secs

     total energy              =    -923.67434324 Ry
     Harris-Foulkes estimate   =    -923.66169140 Ry
     estimated scf accuracy    <       0.00920957 Ry

     total magnetization       =    -0.00 Bohr mag/cell
     absolute magnetization    =     4.56 Bohr mag/cell

     iteration #  7     ecut=    55.00 Ry     beta=0.70
     Davidson diagonalization with overlap
     ethr =  3.20E-06,  avg # of iterations =  8.0

     total cpu time spent up to now is       17.6 secs

     total energy              =    -923.68414664 Ry
     Harris-Foulkes estimate   =    -923.68217128 Ry
     estimated scf accuracy    <       0.00507823 Ry

     total magnetization       =     0.00 Bohr mag/cell
     absolute magnetization    =     3.17 Bohr mag/cell

     iteration #  8     ecut=    55.00 Ry     beta=0.70
     Davidson diagonalization with overlap
     ethr =  1.76E-06,  avg # of iterations =  3.5

     total cpu time spent up to now is       19.1 secs

     total energy              =    -923.68648650 Ry
     Harris-Foulkes estimate   =    -923.68580525 Ry
     estimated scf accuracy    <       0.00118619 Ry

     total magnetization       =     0.00 Bohr mag/cell
     absolute magnetization    =     2.54 Bohr mag/cell

     iteration #  9     ecut=    55.00 Ry     beta=0.70
     Davidson diagonalization with overlap
     ethr =  4.12E-07,  avg # of iterations =  3.5

     total cpu time spent up to now is       20.7 secs

     total energy              =    -923.68730076 Ry
     Harris-Foulkes estimate   =    -923.68722876 Ry
     estimated scf accuracy    <       0.00026125 Ry

     total magnetization       =    -0.00 Bohr mag/cell
     absolute magnetization    =     2.08 Bohr mag/cell

     iteration # 10     ecut=    55.00 Ry     beta=0.70
     Davidson diagonalization with overlap
     ethr =  9.07E-08,  avg # of iterations =  3.5

     total cpu time spent up to now is       22.3 secs

     total energy              =    -923.68747395 Ry
     Harris-Foulkes estimate   =    -923.68749223 Ry
     estimated scf accuracy    <       0.00006947 Ry

     total magnetization       =    -0.00 Bohr mag/cell
     absolute magnetization    =     1.88 Bohr mag/cell

     iteration # 11     ecut=    55.00 Ry     beta=0.70
     Davidson diagonalization with overlap
     ethr =  2.41E-08,  avg # of iterations =  3.0

     total cpu time spent up to now is       23.7 secs

     total energy              =    -923.68750052 Ry
     Harris-Foulkes estimate   =    -923.68750093 Ry
     estimated scf accuracy    <       0.00000292 Ry

     total magnetization       =    -0.00 Bohr mag/cell
     absolute magnetization    =     1.82 Bohr mag/cell

     iteration # 12     ecut=    55.00 Ry     beta=0.70
     Davidson diagonalization with overlap
     ethr =  1.01E-09,  avg # of iterations =  3.5

     total cpu time spent up to now is       25.2 secs

     total energy              =    -923.68750211 Ry
     Harris-Foulkes estimate   =    -923.68750234 Ry
     estimated scf accuracy    <       0.00000112 Ry

     total magnetization       =    -0.00 Bohr mag/cell
     absolute magnetization    =     1.81 Bohr mag/cell

     iteration # 13     ecut=    55.00 Ry     beta=0.70
     Davidson diagonalization with overlap
     ethr =  3.89E-10,  avg # of iterations =  3.5

     total cpu time spent up to now is       26.5 secs

     total energy              =    -923.68750253 Ry
     Harris-Foulkes estimate   =    -923.68750242 Ry
     estimated scf accuracy    <       0.00000008 Ry

     total magnetization       =    -0.00 Bohr mag/cell
     absolute magnetization    =     1.81 Bohr mag/cell

     iteration # 14     ecut=    55.00 Ry     beta=0.70
     Davidson diagonalization with overlap
     ethr =  2.82E-11,  avg # of iterations =  4.0

     total cpu time spent up to now is       28.0 secs

     total energy              =    -923.68750258 Ry
     Harris-Foulkes estimate   =    -923.68750257 Ry
     estimated scf accuracy    <       0.00000003 Ry

     total magnetization       =    -0.00 Bohr mag/cell
     absolute magnetization    =     1.81 Bohr mag/cell

     iteration # 15     ecut=    55.00 Ry     beta=0.70
     Davidson diagonalization with overlap
     ethr =  1.10E-11,  avg # of iterations =  3.5

     total cpu time spent up to now is       29.5 secs

     total energy              =    -923.68750260 Ry
     Harris-Foulkes estimate   =    -923.68750260 Ry
     estimated scf accuracy    <       0.00000001 Ry

     total magnetization       =    -0.00 Bohr mag/cell
     absolute magnetization    =     1.81 Bohr mag/cell

     iteration # 16     ecut=    55.00 Ry     beta=0.70
     Davidson diagonalization with overlap
     ethr =  3.98E-12,  avg # of iterations =  4.0
 
     Magnetic moment per site:
     atom:    1    charge:    0.8602    magn:    0.0005    constr:    0.0000
     atom:    2    charge:    0.8597    magn:    0.0024    constr:    0.0000
     atom:    3    charge:    0.8597    magn:    0.0024    constr:    0.0000
     atom:    4    charge:    0.8602    magn:    0.0005    constr:    0.0000
     atom:    5    charge:    0.8623    magn:    0.0016    constr:    0.0000
     atom:    6    charge:    0.8623    magn:    0.0016    constr:    0.0000
     atom:    7    charge:    0.8646    magn:    0.0020    constr:    0.0000
     atom:    8    charge:    0.8616    magn:    0.0019    constr:    0.0000
     atom:    9    charge:    0.8580    magn:    0.0083    constr:    0.0000
     atom:   10    charge:    0.8616    magn:    0.0019    constr:    0.0000
     atom:   11    charge:    0.8646    magn:    0.0020    constr:    0.0000
     atom:   12    charge:    0.8636    magn:    0.0062    constr:    0.0000
     atom:   13    charge:    0.8638    magn:    0.0019    constr:    0.0000
     atom:   14    charge:    0.8685    magn:    0.0072    constr:    0.0000
     atom:   15    charge:    0.8748    magn:    0.0240    constr:    0.0000
     atom:   16    charge:    0.8748    magn:    0.0240    constr:    0.0000
     atom:   17    charge:    0.8685    magn:    0.0072    constr:    0.0000
     atom:   18    charge:    0.8638    magn:    0.0019    constr:    0.0000
     atom:   19    charge:    0.8606    magn:    0.0016    constr:    0.0000
     atom:   20    charge:    0.8569    magn:    0.0002    constr:    0.0000
     atom:   21    charge:    0.8545    magn:    0.0035    constr:    0.0000
     atom:   22    charge:    0.8545    magn:    0.0035    constr:    0.0000
     atom:   23    charge:    0.8569    magn:    0.0002    constr:    0.0000
     atom:   24    charge:    0.8608    magn:    0.0018    constr:    0.0000
     atom:   25    charge:    0.8608    magn:    0.0018    constr:    0.0000
     atom:   26    charge:    0.8621    magn:    0.0031    constr:    0.0000
     atom:   27    charge:    0.8656    magn:    0.0129    constr:    0.0000
     atom:   28    charge:    0.8656    magn:    0.0129    constr:    0.0000
     atom:   29    charge:    0.8621    magn:    0.0031    constr:    0.0000
     atom:   30    charge:    0.8621    magn:    0.0007    constr:    0.0000
     atom:   31    charge:    0.8616    magn:    0.0056    constr:    0.0000
     atom:   32    charge:    0.8621    magn:    0.0007    constr:    0.0000
     atom:   33    charge:    0.8590    magn:    0.0009    constr:    0.0000
     atom:   34    charge:    0.8673    magn:    0.0054    constr:    0.0000
     atom:   35    charge:    0.8590    magn:    0.0009    constr:    0.0000
     atom:   36    charge:    2.7238    magn:   -0.0004    constr:    0.0000
     atom:   37    charge:    2.7198    magn:   -0.0011    constr:    0.0000
     atom:   38    charge:    2.7178    magn:   -0.0152    constr:    0.0000
     atom:   39    charge:    2.7198    magn:   -0.0011    constr:    0.0000
     atom:   40    charge:    2.7238    magn:   -0.0004    constr:    0.0000
     atom:   41    charge:    2.7191    magn:   -0.0109    constr:    0.0000
     atom:   42    charge:    2.7228    magn:   -0.0042    constr:    0.0000
     atom:   43    charge:    2.7221    magn:   -0.0108    constr:    0.0000
     atom:   44    charge:    2.7160    magn:   -0.0205    constr:    0.0000
     atom:   45    charge:    2.7159    magn:   -0.0205    constr:    0.0000
     atom:   46    charge:    2.7221    magn:   -0.0108    constr:    0.0000
     atom:   47    charge:    2.7228    magn:   -0.0042    constr:    0.0000
     atom:   48    charge:    2.7253    magn:   -0.0054    constr:    0.0000
     atom:   49    charge:    2.7240    magn:   -0.0007    constr:    0.0000
     atom:   50    charge:    2.7288    magn:   -0.0009    constr:    0.0000
     atom:   51    charge:    2.7288    magn:   -0.0009    constr:    0.0000
     atom:   52    charge:    2.7240    magn:   -0.0007    constr:    0.0000
     atom:   53    charge:    2.7210    magn:   -0.0030    constr:    0.0000
     atom:   54    charge:    2.7210    magn:   -0.0030    constr:    0.0000
     atom:   55    charge:    2.7165    magn:   -0.0179    constr:    0.0000
     atom:   56    charge:    2.6915    magn:   -0.0456    constr:    0.0000
     atom:   57    charge:    2.6915    magn:   -0.0456    constr:    0.0000
     atom:   58    charge:    2.7165    magn:   -0.0179    constr:    0.0000
     atom:   59    charge:    2.7213    magn:   -0.0042    constr:    0.0000
     atom:   60    charge:    2.7180    magn:   -0.0103    constr:    0.0000
     atom:   61    charge:    2.7213    magn:   -0.0042    constr:    0.0000
     atom:   62    charge:    2.7182    magn:   -0.0015    constr:    0.0000
     atom:   63    charge:    2.7274    magn:   -0.0208    constr:    0.0000
     atom:   64    charge:    2.7182    magn:   -0.0015    constr:    0.0000
     atom:   65    charge:    2.7215    magn:   -0.0043    constr:    0.0000
     atom:   66    charge:    2.7213    magn:   -0.0034    constr:    0.0000
     atom:   67    charge:    2.7213    magn:   -0.0034    constr:    0.0000
     atom:   68    charge:    2.7215    magn:   -0.0043    constr:    0.0000
     atom:   69    charge:    2.7241    magn:   -0.0041    constr:    0.0000
     atom:   70    charge:    2.7241    magn:   -0.0041    constr:    0.0000
     atom:   71    charge:    1.5712    magn:    0.1678    constr:    0.0000
     atom:   72    charge:    1.6114    magn:   -0.1396    constr:    0.0000

     total cpu time spent up to now is       30.9 secs

     End of self-consistent calculation

 ------ SPIN UP ------------


          k = 0.0000 0.0000 0.0000 (144701 PWs)   bands (ev):

   -21.8597 -21.1782 -20.8449 -20.8127 -20.7599 -20.7323 -20.6300 -20.1197
   -19.9305 -19.8239 -19.7931 -19.7730 -19.6692 -19.4991 -19.4647 -19.3907
   -19.3373 -19.3187 -19.1083 -18.7049 -18.5045 -18.4120 -18.3707 -18.3477
   -18.3459 -18.3181 -18.3167 -18.2832 -18.2791 -18.2772 -18.2428 -18.1688
   -18.1417 -17.7567 -17.6539 -15.6620 -13.1474 -12.5490 -12.5489 -12.2329
   -12.0056 -11.8037 -11.7829 -11.7638 -11.7579 -11.7177 -11.7017 -11.6997
   -11.6796 -11.6137 -11.5952 -11.5762 -11.5242 -11.0230 -10.8020 -10.6768
   -10.6268 -10.5785 -10.5171 -10.4404 -10.4139  -9.6074  -9.4479  -9.2400
    -9.2210  -9.1930  -9.1777  -9.1359  -9.1255  -9.0514  -9.0419  -9.0251
    -9.0011  -8.9965  -8.9791  -8.9755  -8.9632  -8.9212  -8.8088  -8.6372
    -8.4934  -8.2249  -8.2119  -8.1661  -8.1338  -8.0498  -8.0304  -7.8607
    -7.8306  -7.7249  -7.7031  -7.6530  -7.6362  -7.5485  -7.5259  -7.3956
    -7.3265  -7.3132  -7.2622  -7.2497  -7.1385  -7.1149  -7.0356  -7.0227
    -7.0070  -6.9708  -6.8786  -6.8568  -6.8565  -6.8347  -6.8109  -6.7117
    -6.5221  -6.3882  -6.2678  -6.2533  -6.2175  -6.1916  -6.0408  -6.0192
    -5.9602  -5.9078  -5.9072  -5.8675  -5.4347  -5.0157  -4.9765  -4.9073
    -4.7786  -4.7625  -4.7437  -4.7316  -4.7127  -4.7063  -4.6704  -4.6697
    -4.6656  -4.6604  -4.5938  -4.5436  -4.4831  -3.9559  -3.6501  -3.0825
     0.2367   1.0126   1.0554   1.0925   1.1516   1.1520   1.4253   1.7134
     1.7707   1.7749   1.7952   1.8115   1.8462   1.8534   1.8665   1.8794
     1.9048   1.9092   1.9287   1.9534   1.9586   1.9619   1.9733   2.0259

     occupation numbers 
     1.0000   1.0000   1.0000   1.0000   1.0000   1.0000   1.0000   1.0000
     1.0000   1.0000   1.0000   1.0000   1.0000   1.0000   1.0000   1.0000
     1.0000   1.0000   1.0000   1.0000   1.0000   1.0000   1.0000   1.0000
     1.0000   1.0000   1.0000   1.0000   1.0000   1.0000   1.0000   1.0000
     1.0000   1.0000   1.0000   1.0000   1.0000   1.0000   1.0000   1.0000
     1.0000   1.0000   1.0000   1.0000   1.0000   1.0000   1.0000   1.0000
     1.0000   1.0000   1.0000   1.0000   1.0000   1.0000   1.0000   1.0000
     1.0000   1.0000   1.0000   1.0000   1.0000   1.0000   1.0000   1.0000
     1.0000   1.0000   1.0000   1.0000   1.0000   1.0000   1.0000   1.0000
     1.0000   1.0000   1.0000   1.0000   1.0000   1.0000   1.0000   1.0000
     1.0000   1.0000   1.0000   1.0000   1.0000   1.0000   1.0000   1.0000
     1.0000   1.0000   1.0000   1.0000   1.0000   1.0000   1.0000   1.0000
     1.0000   1.0000   1.0000   1.0000   1.0000   1.0000   1.0000   1.0000
     1.0000   1.0000   1.0000   1.0000   1.0000   1.0000   1.0000   1.0000
     1.0000   1.0000   1.0000   1.0000   1.0000   1.0000   1.0000   1.0000
     1.0000   1.0000   1.0000   1.0000   1.0000   1.0000   1.0000   1.0000
     1.0000   1.0000   1.0000   1.0000   1.0000   1.0000   1.0000   1.0000
     1.0000   1.0000   1.0000   1.0000   1.0000   1.0000   1.0000   0.0000
     1.0000   0.0000   0.0000   0.0000   0.0000   0.0000   0.0000   0.0000
     0.0000   0.0000   0.0000   0.0000   0.0000   0.0000   0.0000   0.0000
     0.0000   0.0000   0.0000   0.0000   0.0000   0.0000   0.0000   0.0000

 ------ SPIN DOWN ----------


          k = 0.0000 0.0000 0.0000 (144701 PWs)   bands (ev):

   -21.8178 -21.1782 -20.8563 -20.8198 -20.7639 -20.7371 -20.6388 -20.1181
   -19.9551 -19.8400 -19.7993 -19.7770 -19.6772 -19.5022 -19.4795 -19.4133
   -19.3407 -19.3231 -19.1254 -18.7369 -18.5137 -18.4243 -18.3826 -18.3611
   -18.3518 -18.3285 -18.3257 -18.2917 -18.2855 -18.2854 -18.2508 -18.1882
   -18.1641 -17.7751 -17.6660 -15.8506 -13.1013 -12.5451 -12.5387 -12.2179
   -11.9922 -11.7998 -11.7806 -11.7611 -11.7573 -11.7173 -11.6994 -11.6980
   -11.6730 -11.6273 -11.5953 -11.5696 -11.5272 -11.0120 -10.7958 -10.6724
   -10.6203 -10.5766 -10.5126 -10.4545 -10.4099  -9.5927  -9.4434  -9.2386
    -9.2259  -9.1990  -9.1815  -9.1360  -9.1231  -9.0513  -9.0411  -9.0309
    -9.0003  -8.9963  -8.9781  -8.9613  -8.9451  -8.9175  -8.8190  -8.6369
    -8.4286  -8.2328  -8.2173  -8.1642  -8.1338  -8.0477  -8.0358  -7.8643
    -7.8351  -7.7252  -7.7001  -7.6533  -7.6380  -7.5516  -7.5296  -7.3968
    -7.3291  -7.3157  -7.2652  -7.2558  -7.1450  -7.0470  -7.0395  -7.0281
    -7.0125  -6.9732  -6.9008  -6.8734  -6.8686  -6.8376  -6.8082  -6.7287
    -6.5364  -6.3602  -6.2893  -6.2886  -6.2109  -6.1854  -6.0698  -6.0436
    -5.9679  -5.9106  -5.9099  -5.8819  -5.4560  -5.0247  -4.9998  -4.9325
    -4.8034  -4.7748  -4.7622  -4.7415  -4.7295  -4.7260  -4.7146  -4.6910
    -4.6723  -4.6701  -4.6137  -4.5723  -4.5157  -4.1200  -3.6823  -3.4711
     0.7591   1.0707   1.0787   1.1310   1.1886   1.2084   1.5527   1.7444
     1.7977   1.8178   1.8252   1.8477   1.8650   1.8902   1.9024   1.9147
     1.9168   1.9207   1.9445   1.9654   1.9715   1.9847   2.0197   2.0586

     occupation numbers 
     1.0000   1.0000   1.0000   1.0000   1.0000   1.0000   1.0000   1.0000
     1.0000   1.0000   1.0000   1.0000   1.0000   1.0000   1.0000   1.0000
     1.0000   1.0000   1.0000   1.0000   1.0000   1.0000   1.0000   1.0000
     1.0000   1.0000   1.0000   1.0000   1.0000   1.0000   1.0000   1.0000
     1.0000   1.0000   1.0000   1.0000   1.0000   1.0000   1.0000   1.0000
     1.0000   1.0000   1.0000   1.0000   1.0000   1.0000   1.0000   1.0000
     1.0000   1.0000   1.0000   1.0000   1.0000   1.0000   1.0000   1.0000
     1.0000   1.0000   1.0000   1.0000   1.0000   1.0000   1.0000   1.0000
     1.0000   1.0000   1.0000   1.0000   1.0000   1.0000   1.0000   1.0000
     1.0000   1.0000   1.0000   1.0000   1.0000   1.0000   1.0000   1.0000
     1.0000   1.0000   1.0000   1.0000   1.0000   1.0000   1.0000   1.0000
     1.0000   1.0000   1.0000   1.0000   1.0000   1.0000   1.0000   1.0000
     1.0000   1.0000   1.0000   1.0000   1.0000   1.0000   1.0000   1.0000
     1.0000   1.0000   1.0000   1.0000   1.0000   1.0000   1.0000   1.0000
     1.0000   1.0000   1.0000   1.0000   1.0000   1.0000   1.0000   1.0000
     1.0000   1.0000   1.0000   1.0000   1.0000   1.0000   1.0000   1.0000
     1.0000   1.0000   1.0000   1.0000   1.0000   1.0000   1.0000   1.0000
     1.0000   1.0000   1.0000   1.0000   1.0000   1.0000   1.0000   1.0000
     0.0000   0.0000   0.0000   0.0000   0.0000   0.0000   0.0000   0.0000
     0.0000   0.0000   0.0000   0.0000   0.0000   0.0000   0.0000   0.0000
     0.0000   0.0000   0.0000   0.0000   0.0000   0.0000   0.0000   0.0000

     highest occupied, lowest unoccupied level (ev):    -3.4711   -3.0825

!    total energy              =    -923.68750260 Ry
     Harris-Foulkes estimate   =    -923.68750260 Ry
     estimated scf accuracy    <          5.0E-09 Ry

     The total energy is the sum of the following terms:

     one-electron contribution =   -6004.06851864 Ry
     hartree contribution      =    3060.18399452 Ry
     xc contribution           =    -264.85154028 Ry
     ewald contribution        =    2285.04856180 Ry

     total magnetization       =     0.00 Bohr mag/cell
     absolute magnetization    =     1.81 Bohr mag/cell

     convergence has been achieved in  16 iterations

     Writing output data file BN.save
 
     init_run     :      2.42s CPU      2.89s WALL (       1 calls)
     electrons    :     27.70s CPU     28.10s WALL (       1 calls)

     Called by init_run:
     wfcinit      :      0.53s CPU      0.56s WALL (       1 calls)
     wfcinit:atom :      0.00s CPU      0.01s WALL (       1 calls)
     wfcinit:wfcr :      0.50s CPU      0.53s WALL (       1 calls)
     potinit      :      0.49s CPU      0.49s WALL (       1 calls)

     Called by electrons:
     c_bands      :     24.93s CPU     25.20s WALL (      16 calls)
     sum_band     :      1.51s CPU      1.54s WALL (      16 calls)
     v_of_rho     :      0.79s CPU      0.80s WALL (      17 calls)
     v_h          :      0.03s CPU      0.03s WALL (      17 calls)
     v_xc         :      0.76s CPU      0.76s WALL (      17 calls)
     mix_rho      :      0.24s CPU      0.24s WALL (      16 calls)

     Called by c_bands:
     init_us_2    :      0.24s CPU      0.24s WALL (      33 calls)
     cegterg      :     23.02s CPU     23.28s WALL (      16 calls)

     Called by sum_band:

     Called by *egterg:
     h_psi        :     11.39s CPU     11.49s WALL (     102 calls)
     g_psi        :      0.05s CPU      0.05s WALL (      85 calls)
     cdiaghg      :      7.55s CPU      7.60s WALL (     101 calls)
     cegterg:over :      1.82s CPU      1.83s WALL (      85 calls)
     cegterg:upda :      1.12s CPU      1.15s WALL (      85 calls)
     cegterg:last :      0.37s CPU      0.38s WALL (      16 calls)

     Called by h_psi:
     h_psi:pot    :     11.19s CPU     11.29s WALL (     102 calls)
     h_psi:calbec :      1.70s CPU      1.71s WALL (     102 calls)
     vloc_psi     :      7.95s CPU      8.02s WALL (     102 calls)
     add_vuspsi   :      1.55s CPU      1.56s WALL (     102 calls)

     General routines
     calbec       :      1.70s CPU      1.71s WALL (     102 calls)
     fft          :      0.60s CPU      0.60s WALL (     354 calls)
     fftw         :      8.45s CPU      8.53s WALL (   19118 calls)
 
     Parallel routines
     fft_scatter  :      5.29s CPU      5.34s WALL (   19472 calls)
 
     PWSCF        :    32.93s CPU        34.82s WALL

 
   This run was terminated on:  22:59:19  10Feb2021            

=------------------------------------------------------------------------------=
   JOB DONE.
=------------------------------------------------------------------------------=
