
     Program PWSCF v.6.1 (svn rev. 13369) starts on 10Feb2021 at 22:59:21 

     This program is part of the open-source Quantum ESPRESSO suite
     for quantum simulation of materials; please cite
         "P. Giannozzi et al., J. Phys.:Condens. Matter 21 395502 (2009);
          URL http://www.quantum-espresso.org", 
     in publications or presentations arising from this work. More details at
     http://www.quantum-espresso.org/quote

     Parallel version (MPI), running on   160 processors
     K-points division:     npool     =       2
     R & G space division:  proc/nbgrp/npool/nimage =      80
     Reading input from scf.in
Warning: card &CELL ignored
Warning: card / ignored
Warning: card &IONS ignored
Warning: card / ignored

     Current dimensions of program PWSCF are:
     Max number of different atomic species (ntypx) = 10
     Max number of k-points (npk) = 120000
     Max angular momentum in pseudopotentials (lmaxx) =  3

     Subspace diagonalization in iterative solution of the eigenvalue problem:
     a serial algorithm will be used

 
     Parallelization info
     --------------------
     sticks:   dense  smooth     PW     G-vecs:    dense   smooth      PW
     Min         153     153     38                14461    14461    1806
     Max         154     154     39                14464    14464    1813
     Sum       12259   12259   3067              1156971  1156971  144701
 


     bravais-lattice index     =            0
     lattice parameter (alat)  =      28.4287  a.u.
     unit-cell volume          =   20997.3881 (a.u.)^3
     number of atoms/cell      =           72
     number of atomic types    =            3
     number of electrons       =       288.00 (up: 144.00, down: 144.00)
     number of Kohn-Sham states=          168
     kinetic-energy cutoff     =      55.0000  Ry
     charge density cutoff     =     220.0000  Ry
     convergence threshold     =      1.0E-08
     mixing beta               =       0.7000
     number of iterations used =            8  plain     mixing
     Exchange-correlation      = PBE ( 1  4  3  4 0 0)

     celldm(1)=  28.428666  celldm(2)=   0.000000  celldm(3)=   0.000000
     celldm(4)=   0.000000  celldm(5)=   0.000000  celldm(6)=   0.000000

     crystal axes: (cart. coord. in units of alat)
               a(1) = (   1.000000   0.000000   0.000000 )  
               a(2) = (  -0.499999   0.866026   0.000000 )  
               a(3) = (   0.000000   0.000000   1.055273 )  

     reciprocal axes: (cart. coord. in units 2 pi/alat)
               b(1) = (  1.000000  0.577349  0.000000 )  
               b(2) = (  0.000000  1.154700  0.000000 )  
               b(3) = (  0.000000  0.000000  0.947622 )  


     PseudoPot. # 1 for B  read from file:
     ~/pseudo-ONCV-proj/B_ONCV_PBE-1.0.upf
     MD5 check sum: Not computed, couldn't open file
     Pseudo is Norm-conserving, Zval =  3.0
     Generated using ONCVPSP code by D. R. Hamann
     Using radial grid of 1534 points,  4 beta functions with: 
                l(1) =   0
                l(2) =   0
                l(3) =   1
                l(4) =   1

     PseudoPot. # 2 for N  read from file:
     ~/pseudo-ONCV-proj/N_ONCV_PBE-1.0.upf
     MD5 check sum: Not computed, couldn't open file
     Pseudo is Norm-conserving, Zval =  5.0
     Generated using ONCVPSP code by D. R. Hamann
     Using radial grid of 1058 points,  4 beta functions with: 
                l(1) =   0
                l(2) =   0
                l(3) =   1
                l(4) =   1

     PseudoPot. # 3 for C  read from file:
     ~/pseudo-ONCV-proj/C_ONCV_PBE-1.0.upf
     MD5 check sum: Not computed, couldn't open file
     Pseudo is Norm-conserving, Zval =  4.0
     Generated using ONCVPSP code by D. R. Hamann
     Using radial grid of 1248 points,  4 beta functions with: 
                l(1) =   0
                l(2) =   0
                l(3) =   1
                l(4) =   1

     atomic species   valence    mass     pseudopotential
        B              3.00    10.81100     B ( 1.00)
        N              5.00    14.00674     N ( 1.00)
        C              4.00    12.01070     C ( 1.00)

     Starting magnetic structure 
     atomic species   magnetization
        B            1.000
        N            0.000
        C            0.000

      2 Sym. Ops. (no inversion) found


                                    s                        frac. trans.

      isym =  1     identity                                     

 cryst.   s( 1) = (     1          0          0      )
                  (     0          1          0      )
                  (     0          0          1      )

 cart.    s( 1) = (  1.0000000 -0.0000000  0.0000000 )
                  (  0.0000000  1.0000000  0.0000000 )
                  (  0.0000000  0.0000000  1.0000000 )


      isym =  2     inv. 180 deg rotation - cart. axis [0,0,1]   

 cryst.   s( 2) = (     1          0          0      )
                  (     0          1          0      )
                  (     0          0         -1      )

 cart.    s( 2) = (  1.0000000 -0.0000000  0.0000000 )
                  (  0.0000000  1.0000000  0.0000000 )
                  (  0.0000000  0.0000000 -1.0000000 )


   Cartesian axes

     site n.     atom                  positions (alat units)
         1           B   tau(   1) = (  -0.0001352   0.0960675   0.5276366  )
         2           B   tau(   2) = (  -0.0832832   0.2406397   0.5276366  )
         3           B   tau(   3) = (  -0.1665745   0.3849049   0.5276366  )
         4           B   tau(   4) = (  -0.2502034   0.5291995   0.5276366  )
         5           B   tau(   5) = (  -0.3332539   0.6735962   0.5276366  )
         6           B   tau(   6) = (  -0.4166085   0.8179711   0.5276366  )
         7           B   tau(   7) = (   0.1666520   0.0960506   0.5276366  )
         8           B   tau(   8) = (   0.0832613   0.2404090   0.5276366  )
         9           B   tau(   9) = (   0.0005847   0.3852376   0.5276366  )
        10           B   tau(  10) = (  -0.0835019   0.5292521   0.5276366  )
        11           B   tau(  11) = (  -0.1668242   0.6736499   0.5276366  )
        12           B   tau(  12) = (  -0.2500112   0.8179062   0.5276366  )
        13           B   tau(  13) = (   0.3334821   0.0959608   0.5276366  )
        14           B   tau(  14) = (   0.2504301   0.2394823   0.5276366  )
        15           B   tau(  15) = (   0.1679351   0.3834556   0.5276366  )
        16           B   tau(  16) = (   0.0827168   0.5310584   0.5276366  )
        17           B   tau(  17) = (  -0.0007199   0.6744880   0.5276366  )
        18           B   tau(  18) = (  -0.0834868   0.8181740   0.5276366  )
        19           B   tau(  19) = (   0.5000689   0.0962646   0.5276366  )
        20           B   tau(  20) = (   0.4164967   0.2408890   0.5276366  )
        21           B   tau(  21) = (   0.3321832   0.3851594   0.5276366  )
        22           B   tau(  22) = (   0.1663166   0.6724496   0.5276366  )
        23           B   tau(  23) = (   0.0835318   0.8176026   0.5276366  )
        24           B   tau(  24) = (   0.6666766   0.0961407   0.5276366  )
        25           B   tau(  25) = (   0.5832656   0.2406132   0.5276366  )
        26           B   tau(  26) = (   0.4997184   0.3850174   0.5276366  )
        27           B   tau(  27) = (   0.4164876   0.5300622   0.5276366  )
        28           B   tau(  28) = (   0.3339581   0.6730078   0.5276366  )
        29           B   tau(  29) = (   0.2499613   0.8176105   0.5276366  )
        30           B   tau(  30) = (   0.8332588   0.0961335   0.5276366  )
        31           B   tau(  31) = (   0.7499664   0.2405431   0.5276366  )
        32           B   tau(  32) = (   0.6665506   0.3848814   0.5276366  )
        33           B   tau(  33) = (   0.5830151   0.5292654   0.5276366  )
        34           B   tau(  34) = (   0.5004908   0.6738585   0.5276366  )
        35           B   tau(  35) = (   0.4165320   0.8176234   0.5276366  )
        36           N   tau(  36) = (   0.0832520   0.0479728   0.5276366  )
        37           N   tau(  37) = (  -0.0001483   0.1921471   0.5276366  )
        38           N   tau(  38) = (  -0.0831520   0.3368921   0.5276366  )
        39           N   tau(  39) = (  -0.1670027   0.4811482   0.5276366  )
        40           N   tau(  40) = (  -0.2501608   0.6254623   0.5276366  )
        41           N   tau(  41) = (  -0.3333829   0.7697716   0.5276366  )
        42           N   tau(  42) = (   0.2500479   0.0479995   0.5276366  )
        43           N   tau(  43) = (   0.1667473   0.1920311   0.5276366  )
        44           N   tau(  44) = (   0.0836139   0.3362223   0.5276366  )
        45           N   tau(  45) = (  -0.0003490   0.4816506   0.5276366  )
        46           N   tau(  46) = (  -0.0836552   0.6257421   0.5276366  )
        47           N   tau(  47) = (  -0.1667395   0.7698985   0.5276366  )
        48           N   tau(  48) = (   0.4167754   0.0481751   0.5276366  )
        49           N   tau(  49) = (   0.3337566   0.1919775   0.5276366  )
        50           N   tau(  50) = (   0.2508588   0.3352339   0.5276366  )
        51           N   tau(  51) = (   0.0824177   0.6269833   0.5276366  )
        52           N   tau(  52) = (  -0.0001968   0.7704033   0.5276366  )
        53           N   tau(  53) = (   0.5834877   0.0479274   0.5276366  )
        54           N   tau(  54) = (   0.4999172   0.1926761   0.5276366  )
        55           N   tau(  55) = (   0.4161313   0.3376548   0.5276366  )
        56           N   tau(  56) = (   0.3316634   0.4833681   0.5276366  )
        57           N   tau(  57) = (   0.2511077   0.6228949   0.5276366  )
        58           N   tau(  58) = (   0.1671506   0.7689031   0.5276366  )
        59           N   tau(  59) = (   0.7499667   0.0477993   0.5276366  )
        60           N   tau(  60) = (   0.6665878   0.1924043   0.5276366  )
        61           N   tau(  61) = (   0.5830460   0.3369153   0.5276366  )
        62           N   tau(  62) = (   0.4991966   0.4813100   0.5276366  )
        63           N   tau(  63) = (   0.4171220   0.6257255   0.5276366  )
        64           N   tau(  64) = (   0.3330922   0.7690120   0.5276366  )
        65           N   tau(  65) = (   0.9164595   0.0477483   0.5276366  )
        66           N   tau(  66) = (   0.8332638   0.1923550   0.5276366  )
        67           N   tau(  67) = (   0.7498832   0.3367748   0.5276366  )
        68           N   tau(  68) = (   0.6662484   0.4811279   0.5276366  )
        69           N   tau(  69) = (   0.5833372   0.6254559   0.5276366  )
        70           N   tau(  70) = (   0.4999962   0.7698069   0.5276366  )
        71           C   tau(  71) = (   0.2502292   0.5293699   0.5276366  )
        72           C   tau(  72) = (   0.1705175   0.4833483   0.5276366  )

   Crystallographic axes

     site n.     atom                  positions (cryst. coord.)
         1           B   tau(   1) = (  0.0553292  0.1109291  0.5000000  )
         2           B   tau(   2) = (  0.0556499  0.2778666  0.5000000  )
         3           B   tau(   3) = (  0.0556499  0.4444496  0.5000000  )
         4           B   tau(   4) = (  0.0553292  0.6110665  0.5000000  )
         5           B   tau(   5) = (  0.0556461  0.7778014  0.5000000  )
         6           B   tau(   6) = (  0.0556460  0.9445110  0.5000000  )
         7           B   tau(   7) = (  0.2221067  0.1109096  0.5000000  )
         8           B   tau(   8) = (  0.2220611  0.2776002  0.5000000  )
         9           B   tau(   9) = (  0.2230011  0.4448337  0.5000000  )
        10           B   tau(  10) = (  0.2220611  0.6111273  0.5000000  )
        11           B   tau(  11) = (  0.2221067  0.7778634  0.5000000  )
        12           B   tau(  12) = (  0.2222059  0.9444361  0.5000000  )
        13           B   tau(  13) = (  0.3888849  0.1108060  0.5000000  )
        14           B   tau(  14) = (  0.3886949  0.2765302  0.5000000  )
        15           B   tau(  15) = (  0.3893227  0.4427761  0.5000000  )
        16           B   tau(  16) = (  0.3893227  0.6132129  0.5000000  )
        17           B   tau(  17) = (  0.3886949  0.7788311  0.5000000  )
        18           B   tau(  18) = (  0.3888849  0.9447453  0.5000000  )
        19           B   tau(  19) = (  0.5556471  0.1111567  0.5000000  )
        20           B   tau(  20) = (  0.5555737  0.2781544  0.5000000  )
        21           B   tau(  21) = (  0.5545544  0.4447435  0.5000000  )
        22           B   tau(  22) = (  0.5545544  0.7764773  0.5000000  )
        23           B   tau(  23) = (  0.5555737  0.9440856  0.5000000  )
        24           B   tau(  24) = (  0.7221833  0.1110136  0.5000000  )
        25           B   tau(  25) = (  0.7221833  0.2778361  0.5000000  )
        26           B   tau(  26) = (  0.7220077  0.4445794  0.5000000  )
        27           B   tau(  27) = (  0.7225183  0.6120627  0.5000000  )
        28           B   tau(  28) = (  0.7225183  0.7771220  0.5000000  )
        29           B   tau(  29) = (  0.7220077  0.9440946  0.5000000  )
        30           B   tau(  30) = (  0.8887614  0.1110053  0.5000000  )
        31           B   tau(  31) = (  0.8888437  0.2777550  0.5000000  )
        32           B   tau(  32) = (  0.8887614  0.4444224  0.5000000  )
        33           B   tau(  33) = (  0.8885858  0.6111426  0.5000000  )
        34           B   tau(  34) = (  0.8895422  0.7781043  0.5000000  )
        35           B   tau(  35) = (  0.8885858  0.9441096  0.5000000  )
        36           N   tau(  36) = (  0.1109490  0.0553941  0.5000000  )
        37           N   tau(  37) = (  0.1107876  0.2218722  0.5000000  )
        38           N   tau(  38) = (  0.1113522  0.3890093  0.5000000  )
        39           N   tau(  39) = (  0.1107876  0.5555817  0.5000000  )
        40           N   tau(  40) = (  0.1109490  0.7222212  0.5000000  )
        41           N   tau(  41) = (  0.1110437  0.8888550  0.5000000  )
        42           N   tau(  42) = (  0.2777603  0.0554251  0.5000000  )
        43           N   tau(  43) = (  0.2776162  0.2217382  0.5000000  )
        44           N   tau(  44) = (  0.2777314  0.3882358  0.5000000  )
        45           N   tau(  45) = (  0.2777314  0.5561619  0.5000000  )
        46           N   tau(  46) = (  0.2776162  0.7225442  0.5000000  )
        47           N   tau(  47) = (  0.2777603  0.8890016  0.5000000  )
        48           N   tau(  48) = (  0.4445892  0.0556278  0.5000000  )
        49           N   tau(  49) = (  0.4445945  0.2216764  0.5000000  )
        50           N   tau(  50) = (  0.4444057  0.3870945  0.5000000  )
        51           N   tau(  51) = (  0.4444057  0.7239775  0.5000000  )
        52           N   tau(  52) = (  0.4445945  0.8895844  0.5000000  )
        53           N   tau(  53) = (  0.6111585  0.0553417  0.5000000  )
        54           N   tau(  54) = (  0.6111585  0.2224831  0.5000000  )
        55           N   tau(  55) = (  0.6110758  0.3898899  0.5000000  )
        56           N   tau(  56) = (  0.6107353  0.5581450  0.5000000  )
        57           N   tau(  57) = (  0.6107353  0.7192566  0.5000000  )
        58           N   tau(  58) = (  0.6110758  0.8878522  0.5000000  )
        59           N   tau(  59) = (  0.7775636  0.0551939  0.5000000  )
        60           N   tau(  60) = (  0.7776722  0.2221692  0.5000000  )
        61           N   tau(  61) = (  0.7775636  0.3890360  0.5000000  )
        62           N   tau(  62) = (  0.7770803  0.5557686  0.5000000  )
        63           N   tau(  63) = (  0.7783838  0.7225250  0.5000000  )
        64           N   tau(  64) = (  0.7770803  0.8879780  0.5000000  )
        65           N   tau(  65) = (  0.9440269  0.0551350  0.5000000  )
        66           N   tau(  66) = (  0.9443197  0.2221123  0.5000000  )
        67           N   tau(  67) = (  0.9443197  0.3888738  0.5000000  )
        68           N   tau(  68) = (  0.9440269  0.5555582  0.5000000  )
        69           N   tau(  69) = (  0.9444433  0.7222137  0.5000000  )
        70           N   tau(  70) = (  0.9444433  0.8888959  0.5000000  )
        71           C   tau(  71) = (  0.5558602  0.6112633  0.5000000  )
        72           C   tau(  72) = (  0.4495781  0.5581222  0.5000000  )

     number of k points=     1
                       cart. coord. in units 2pi/alat
        k(    1) = (   0.0000000   0.0000000   0.0000000), wk =   1.0000000

                       cryst. coord.
        k(    1) = (   0.0000000   0.0000000   0.0000000), wk =   1.0000000

     Dense  grid:  1156971 G-vectors     FFT dimensions: ( 135, 135, 144)

     Occupations read from input 

      Spin-up

        1.0000   1.0000   1.0000   1.0000   1.0000   1.0000   1.0000   1.0000
        1.0000   1.0000   1.0000   1.0000   1.0000   1.0000   1.0000   1.0000
        1.0000   1.0000   1.0000   1.0000   1.0000   1.0000   1.0000   1.0000
        1.0000   1.0000   1.0000   1.0000   1.0000   1.0000   1.0000   1.0000
        1.0000   1.0000   1.0000   1.0000   1.0000   1.0000   1.0000   1.0000
        1.0000   1.0000   1.0000   1.0000   1.0000   1.0000   1.0000   1.0000
        1.0000   1.0000   1.0000   1.0000   1.0000   1.0000   1.0000   1.0000
        1.0000   1.0000   1.0000   1.0000   1.0000   1.0000   1.0000   1.0000
        1.0000   1.0000   1.0000   1.0000   1.0000   1.0000   1.0000   1.0000
        1.0000   1.0000   1.0000   1.0000   1.0000   1.0000   1.0000   1.0000
        1.0000   1.0000   1.0000   1.0000   1.0000   1.0000   1.0000   1.0000
        1.0000   1.0000   1.0000   1.0000   1.0000   1.0000   1.0000   1.0000
        1.0000   1.0000   1.0000   1.0000   1.0000   1.0000   1.0000   1.0000
        1.0000   1.0000   1.0000   1.0000   1.0000   1.0000   1.0000   1.0000
        1.0000   1.0000   1.0000   1.0000   1.0000   1.0000   1.0000   1.0000
        1.0000   1.0000   1.0000   1.0000   1.0000   1.0000   1.0000   1.0000
        1.0000   1.0000   1.0000   1.0000   1.0000   1.0000   1.0000   1.0000
        1.0000   1.0000   1.0000   1.0000   1.0000   1.0000   1.0000   0.0000
        1.0000   0.0000   0.0000   0.0000   0.0000   0.0000   0.0000   0.0000
        0.0000   0.0000   0.0000   0.0000   0.0000   0.0000   0.0000   0.0000
        0.0000   0.0000   0.0000   0.0000   0.0000   0.0000   0.0000   0.0000

      Spin-down

        1.0000   1.0000   1.0000   1.0000   1.0000   1.0000   1.0000   1.0000
        1.0000   1.0000   1.0000   1.0000   1.0000   1.0000   1.0000   1.0000
        1.0000   1.0000   1.0000   1.0000   1.0000   1.0000   1.0000   1.0000
        1.0000   1.0000   1.0000   1.0000   1.0000   1.0000   1.0000   1.0000
        1.0000   1.0000   1.0000   1.0000   1.0000   1.0000   1.0000   1.0000
        1.0000   1.0000   1.0000   1.0000   1.0000   1.0000   1.0000   1.0000
        1.0000   1.0000   1.0000   1.0000   1.0000   1.0000   1.0000   1.0000
        1.0000   1.0000   1.0000   1.0000   1.0000   1.0000   1.0000   1.0000
        1.0000   1.0000   1.0000   1.0000   1.0000   1.0000   1.0000   1.0000
        1.0000   1.0000   1.0000   1.0000   1.0000   1.0000   1.0000   1.0000
        1.0000   1.0000   1.0000   1.0000   1.0000   1.0000   1.0000   1.0000
        1.0000   1.0000   1.0000   1.0000   1.0000   1.0000   1.0000   1.0000
        1.0000   1.0000   1.0000   1.0000   1.0000   1.0000   1.0000   1.0000
        1.0000   1.0000   1.0000   1.0000   1.0000   1.0000   1.0000   1.0000
        1.0000   1.0000   1.0000   1.0000   1.0000   1.0000   1.0000   1.0000
        1.0000   1.0000   1.0000   1.0000   1.0000   1.0000   1.0000   1.0000
        1.0000   1.0000   1.0000   1.0000   1.0000   1.0000   1.0000   1.0000
        1.0000   1.0000   1.0000   1.0000   1.0000   1.0000   1.0000   1.0000
        0.0000   0.0000   0.0000   0.0000   0.0000   0.0000   0.0000   0.0000
        0.0000   0.0000   0.0000   0.0000   0.0000   0.0000   0.0000   0.0000
        0.0000   0.0000   0.0000   0.0000   0.0000   0.0000   0.0000   0.0000

     Estimated max dynamical RAM per process >      68.84MB

     Estimated total allocated dynamical RAM >   11014.86MB
     Generating pointlists ...
     new r_m :   0.0394 (alat units)  1.1190 (a.u.) for type    1
     new r_m :   0.0386 (alat units)  1.0968 (a.u.) for type    2
     new r_m :   0.0380 (alat units)  1.0794 (a.u.) for type    3

     Initial potential from superposition of free atoms
     Check: negative starting charge=(component1):   -0.001385
     Check: negative starting charge=(component2):   -0.001913

     starting charge  287.99093, renormalised to  288.00000

     negative rho (up, down):  1.386E-03 1.913E-03
     Starting wfc are  288 randomized atomic wfcs

     total cpu time spent up to now is        2.9 secs

     per-process dynamical memory:    91.4 Mb

     Self-consistent Calculation

     iteration #  1     ecut=    55.00 Ry     beta=0.70
     Davidson diagonalization with overlap
     ethr =  1.00E-02,  avg # of iterations =  2.5

     negative rho (up, down):  1.551E-04 3.038E-04

     total cpu time spent up to now is        4.4 secs

     total energy              =    -916.50774387 Ry
     Harris-Foulkes estimate   =    -922.43437907 Ry
     estimated scf accuracy    <      16.96908861 Ry

     total magnetization       =     0.00 Bohr mag/cell
     absolute magnetization    =    19.41 Bohr mag/cell

     iteration #  2     ecut=    55.00 Ry     beta=0.70
     Davidson diagonalization with overlap
     ethr =  5.89E-03,  avg # of iterations =  3.0

     negative rho (up, down):  6.363E-05 1.189E-04

     total cpu time spent up to now is        5.8 secs

     total energy              =    -921.21652197 Ry
     Harris-Foulkes estimate   =    -925.71325759 Ry
     estimated scf accuracy    <      10.36180193 Ry

     total magnetization       =    -0.00 Bohr mag/cell
     absolute magnetization    =    15.03 Bohr mag/cell

     iteration #  3     ecut=    55.00 Ry     beta=0.70
     Davidson diagonalization with overlap
     ethr =  3.60E-03,  avg # of iterations =  2.5

     negative rho (up, down):  1.732E-05 3.406E-05

     total cpu time spent up to now is        7.0 secs

     total energy              =    -923.08683402 Ry
     Harris-Foulkes estimate   =    -923.38779995 Ry
     estimated scf accuracy    <       0.92445198 Ry

     total magnetization       =     0.00 Bohr mag/cell
     absolute magnetization    =    10.23 Bohr mag/cell

     iteration #  4     ecut=    55.00 Ry     beta=0.70
     Davidson diagonalization with overlap
     ethr =  3.21E-04,  avg # of iterations = 14.5

     total cpu time spent up to now is       10.0 secs

     total energy              =    -923.49287133 Ry
     Harris-Foulkes estimate   =    -923.77783424 Ry
     estimated scf accuracy    <       1.24216285 Ry

     total magnetization       =    -0.00 Bohr mag/cell
     absolute magnetization    =     7.97 Bohr mag/cell

     iteration #  5     ecut=    55.00 Ry     beta=0.70
     Davidson diagonalization with overlap
     ethr =  3.21E-04,  avg # of iterations =  8.0

     negative rho (up, down):  6.485E-09 1.215E-08

     total cpu time spent up to now is       11.6 secs

     total energy              =    -923.65017592 Ry
     Harris-Foulkes estimate   =    -923.65138640 Ry
     estimated scf accuracy    <       0.04134713 Ry

     total magnetization       =     0.00 Bohr mag/cell
     absolute magnetization    =     5.56 Bohr mag/cell

     iteration #  6     ecut=    55.00 Ry     beta=0.70
     Davidson diagonalization with overlap
     ethr =  1.44E-05,  avg # of iterations = 12.0

     total cpu time spent up to now is       14.6 secs

     total energy              =    -923.67512653 Ry
     Harris-Foulkes estimate   =    -923.66233708 Ry
     estimated scf accuracy    <       0.00916484 Ry

     total magnetization       =    -0.00 Bohr mag/cell
     absolute magnetization    =     4.56 Bohr mag/cell

     iteration #  7     ecut=    55.00 Ry     beta=0.70
     Davidson diagonalization with overlap
     ethr =  3.18E-06,  avg # of iterations =  7.5

     total cpu time spent up to now is       18.1 secs

     total energy              =    -923.68498218 Ry
     Harris-Foulkes estimate   =    -923.68290078 Ry
     estimated scf accuracy    <       0.00487715 Ry

     total magnetization       =     0.00 Bohr mag/cell
     absolute magnetization    =     3.17 Bohr mag/cell

     iteration #  8     ecut=    55.00 Ry     beta=0.70
     Davidson diagonalization with overlap
     ethr =  1.69E-06,  avg # of iterations =  3.5

     total cpu time spent up to now is       19.5 secs

     total energy              =    -923.68733029 Ry
     Harris-Foulkes estimate   =    -923.68665913 Ry
     estimated scf accuracy    <       0.00116683 Ry

     total magnetization       =     0.00 Bohr mag/cell
     absolute magnetization    =     2.53 Bohr mag/cell

     iteration #  9     ecut=    55.00 Ry     beta=0.70
     Davidson diagonalization with overlap
     ethr =  4.05E-07,  avg # of iterations =  3.5

     total cpu time spent up to now is       21.2 secs

     total energy              =    -923.68813691 Ry
     Harris-Foulkes estimate   =    -923.68806790 Ry
     estimated scf accuracy    <       0.00025504 Ry

     total magnetization       =    -0.00 Bohr mag/cell
     absolute magnetization    =     2.07 Bohr mag/cell

     iteration # 10     ecut=    55.00 Ry     beta=0.70
     Davidson diagonalization with overlap
     ethr =  8.86E-08,  avg # of iterations =  3.5

     total cpu time spent up to now is       22.7 secs

     total energy              =    -923.68830511 Ry
     Harris-Foulkes estimate   =    -923.68832253 Ry
     estimated scf accuracy    <       0.00006616 Ry

     total magnetization       =    -0.00 Bohr mag/cell
     absolute magnetization    =     1.87 Bohr mag/cell

     iteration # 11     ecut=    55.00 Ry     beta=0.70
     Davidson diagonalization with overlap
     ethr =  2.30E-08,  avg # of iterations =  3.0

     total cpu time spent up to now is       24.1 secs

     total energy              =    -923.68833047 Ry
     Harris-Foulkes estimate   =    -923.68833077 Ry
     estimated scf accuracy    <       0.00000264 Ry

     total magnetization       =    -0.00 Bohr mag/cell
     absolute magnetization    =     1.82 Bohr mag/cell

     iteration # 12     ecut=    55.00 Ry     beta=0.70
     Davidson diagonalization with overlap
     ethr =  9.17E-10,  avg # of iterations =  3.5

     total cpu time spent up to now is       25.6 secs

     total energy              =    -923.68833199 Ry
     Harris-Foulkes estimate   =    -923.68833219 Ry
     estimated scf accuracy    <       0.00000100 Ry

     total magnetization       =     0.00 Bohr mag/cell
     absolute magnetization    =     1.81 Bohr mag/cell

     iteration # 13     ecut=    55.00 Ry     beta=0.70
     Davidson diagonalization with overlap
     ethr =  3.48E-10,  avg # of iterations =  3.5

     total cpu time spent up to now is       26.9 secs

     total energy              =    -923.68833238 Ry
     Harris-Foulkes estimate   =    -923.68833227 Ry
     estimated scf accuracy    <       0.00000008 Ry

     total magnetization       =     0.00 Bohr mag/cell
     absolute magnetization    =     1.80 Bohr mag/cell

     iteration # 14     ecut=    55.00 Ry     beta=0.70
     Davidson diagonalization with overlap
     ethr =  2.94E-11,  avg # of iterations =  3.5

     total cpu time spent up to now is       28.4 secs

     total energy              =    -923.68833243 Ry
     Harris-Foulkes estimate   =    -923.68833242 Ry
     estimated scf accuracy    <       0.00000003 Ry

     total magnetization       =    -0.00 Bohr mag/cell
     absolute magnetization    =     1.80 Bohr mag/cell

     iteration # 15     ecut=    55.00 Ry     beta=0.70
     Davidson diagonalization with overlap
     ethr =  1.08E-11,  avg # of iterations =  3.5

     total cpu time spent up to now is       29.8 secs

     total energy              =    -923.68833245 Ry
     Harris-Foulkes estimate   =    -923.68833244 Ry
     estimated scf accuracy    <       0.00000001 Ry

     total magnetization       =     0.00 Bohr mag/cell
     absolute magnetization    =     1.80 Bohr mag/cell

     iteration # 16     ecut=    55.00 Ry     beta=0.70
     Davidson diagonalization with overlap
     ethr =  3.63E-12,  avg # of iterations =  4.0
 
     Magnetic moment per site:
     atom:    1    charge:    0.8611    magn:    0.0005    constr:    0.0000
     atom:    2    charge:    0.8605    magn:    0.0024    constr:    0.0000
     atom:    3    charge:    0.8605    magn:    0.0024    constr:    0.0000
     atom:    4    charge:    0.8611    magn:    0.0005    constr:    0.0000
     atom:    5    charge:    0.8631    magn:    0.0016    constr:    0.0000
     atom:    6    charge:    0.8631    magn:    0.0016    constr:    0.0000
     atom:    7    charge:    0.8655    magn:    0.0020    constr:    0.0000
     atom:    8    charge:    0.8624    magn:    0.0018    constr:    0.0000
     atom:    9    charge:    0.8589    magn:    0.0081    constr:    0.0000
     atom:   10    charge:    0.8624    magn:    0.0018    constr:    0.0000
     atom:   11    charge:    0.8655    magn:    0.0020    constr:    0.0000
     atom:   12    charge:    0.8644    magn:    0.0061    constr:    0.0000
     atom:   13    charge:    0.8647    magn:    0.0019    constr:    0.0000
     atom:   14    charge:    0.8694    magn:    0.0071    constr:    0.0000
     atom:   15    charge:    0.8755    magn:    0.0238    constr:    0.0000
     atom:   16    charge:    0.8755    magn:    0.0238    constr:    0.0000
     atom:   17    charge:    0.8694    magn:    0.0071    constr:    0.0000
     atom:   18    charge:    0.8647    magn:    0.0019    constr:    0.0000
     atom:   19    charge:    0.8614    magn:    0.0015    constr:    0.0000
     atom:   20    charge:    0.8576    magn:    0.0002    constr:    0.0000
     atom:   21    charge:    0.8551    magn:    0.0036    constr:    0.0000
     atom:   22    charge:    0.8551    magn:    0.0036    constr:    0.0000
     atom:   23    charge:    0.8576    magn:    0.0002    constr:    0.0000
     atom:   24    charge:    0.8617    magn:    0.0018    constr:    0.0000
     atom:   25    charge:    0.8617    magn:    0.0018    constr:    0.0000
     atom:   26    charge:    0.8629    magn:    0.0032    constr:    0.0000
     atom:   27    charge:    0.8665    magn:    0.0129    constr:    0.0000
     atom:   28    charge:    0.8665    magn:    0.0129    constr:    0.0000
     atom:   29    charge:    0.8629    magn:    0.0032    constr:    0.0000
     atom:   30    charge:    0.8630    magn:    0.0007    constr:    0.0000
     atom:   31    charge:    0.8625    magn:    0.0055    constr:    0.0000
     atom:   32    charge:    0.8630    magn:    0.0007    constr:    0.0000
     atom:   33    charge:    0.8599    magn:    0.0008    constr:    0.0000
     atom:   34    charge:    0.8683    magn:    0.0054    constr:    0.0000
     atom:   35    charge:    0.8599    magn:    0.0008    constr:    0.0000
     atom:   36    charge:    2.7213    magn:   -0.0004    constr:    0.0000
     atom:   37    charge:    2.7173    magn:   -0.0010    constr:    0.0000
     atom:   38    charge:    2.7154    magn:   -0.0150    constr:    0.0000
     atom:   39    charge:    2.7173    magn:   -0.0010    constr:    0.0000
     atom:   40    charge:    2.7213    magn:   -0.0004    constr:    0.0000
     atom:   41    charge:    2.7165    magn:   -0.0108    constr:    0.0000
     atom:   42    charge:    2.7203    magn:   -0.0041    constr:    0.0000
     atom:   43    charge:    2.7196    magn:   -0.0107    constr:    0.0000
     atom:   44    charge:    2.7136    magn:   -0.0204    constr:    0.0000
     atom:   45    charge:    2.7136    magn:   -0.0204    constr:    0.0000
     atom:   46    charge:    2.7196    magn:   -0.0107    constr:    0.0000
     atom:   47    charge:    2.7203    magn:   -0.0041    constr:    0.0000
     atom:   48    charge:    2.7228    magn:   -0.0052    constr:    0.0000
     atom:   49    charge:    2.7213    magn:   -0.0006    constr:    0.0000
     atom:   50    charge:    2.7260    magn:   -0.0009    constr:    0.0000
     atom:   51    charge:    2.7260    magn:   -0.0009    constr:    0.0000
     atom:   52    charge:    2.7213    magn:   -0.0006    constr:    0.0000
     atom:   53    charge:    2.7185    magn:   -0.0030    constr:    0.0000
     atom:   54    charge:    2.7185    magn:   -0.0030    constr:    0.0000
     atom:   55    charge:    2.7140    magn:   -0.0178    constr:    0.0000
     atom:   56    charge:    2.6894    magn:   -0.0452    constr:    0.0000
     atom:   57    charge:    2.6894    magn:   -0.0452    constr:    0.0000
     atom:   58    charge:    2.7140    magn:   -0.0178    constr:    0.0000
     atom:   59    charge:    2.7189    magn:   -0.0042    constr:    0.0000
     atom:   60    charge:    2.7154    magn:   -0.0102    constr:    0.0000
     atom:   61    charge:    2.7189    magn:   -0.0042    constr:    0.0000
     atom:   62    charge:    2.7157    magn:   -0.0015    constr:    0.0000
     atom:   63    charge:    2.7248    magn:   -0.0205    constr:    0.0000
     atom:   64    charge:    2.7157    magn:   -0.0015    constr:    0.0000
     atom:   65    charge:    2.7191    magn:   -0.0043    constr:    0.0000
     atom:   66    charge:    2.7188    magn:   -0.0034    constr:    0.0000
     atom:   67    charge:    2.7188    magn:   -0.0034    constr:    0.0000
     atom:   68    charge:    2.7191    magn:   -0.0043    constr:    0.0000
     atom:   69    charge:    2.7216    magn:   -0.0040    constr:    0.0000
     atom:   70    charge:    2.7216    magn:   -0.0040    constr:    0.0000
     atom:   71    charge:    1.5805    magn:    0.1694    constr:    0.0000
     atom:   72    charge:    1.6196    magn:   -0.1410    constr:    0.0000

     total cpu time spent up to now is       31.3 secs

     End of self-consistent calculation

 ------ SPIN UP ------------


          k = 0.0000 0.0000 0.0000 (144701 PWs)   bands (ev):

   -21.8636 -21.1783 -20.8454 -20.8121 -20.7597 -20.7323 -20.6303 -20.1201
   -19.9326 -19.8233 -19.7935 -19.7726 -19.6690 -19.4990 -19.4658 -19.3900
   -19.3376 -19.3190 -19.1077 -18.7079 -18.5038 -18.4120 -18.3707 -18.3475
   -18.3456 -18.3179 -18.3163 -18.2830 -18.2787 -18.2769 -18.2428 -18.1691
   -18.1424 -17.7562 -17.6544 -15.6457 -13.1514 -12.5489 -12.5488 -12.2334
   -12.0071 -11.8040 -11.7827 -11.7641 -11.7574 -11.7174 -11.7014 -11.6993
   -11.6796 -11.6124 -11.5944 -11.5763 -11.5246 -11.0229 -10.8022 -10.6774
   -10.6271 -10.5784 -10.5164 -10.4394 -10.4138  -9.6103  -9.4475  -9.2388
    -9.2218  -9.1925  -9.1769  -9.1360  -9.1249  -9.0512  -9.0415  -9.0251
    -9.0011  -8.9968  -8.9791  -8.9762  -8.9624  -8.9210  -8.8084  -8.6369
    -8.4944  -8.2252  -8.2113  -8.1660  -8.1337  -8.0507  -8.0303  -7.8605
    -7.8316  -7.7256  -7.7028  -7.6525  -7.6366  -7.5475  -7.5252  -7.3960
    -7.3256  -7.3137  -7.2624  -7.2487  -7.1393  -7.1156  -7.0351  -7.0218
    -7.0057  -6.9704  -6.8794  -6.8564  -6.8561  -6.8349  -6.8106  -6.7111
    -6.5215  -6.3883  -6.2684  -6.2527  -6.2177  -6.1917  -6.0411  -6.0181
    -5.9602  -5.9075  -5.9068  -5.8654  -5.4347  -5.0145  -4.9762  -4.9094
    -4.7784  -4.7626  -4.7436  -4.7314  -4.7126  -4.7059  -4.6710  -4.6699
    -4.6652  -4.6605  -4.5936  -4.5437  -4.4835  -3.9543  -3.6505  -3.0755
     0.2312   1.0127   1.0555   1.0932   1.1518   1.1526   1.4254   1.7136
     1.7703   1.7743   1.7964   1.8120   1.8472   1.8541   1.8669   1.8800
     1.9050   1.9093   1.9291   1.9535   1.9594   1.9622   1.9734   2.0263

     occupation numbers 
     1.0000   1.0000   1.0000   1.0000   1.0000   1.0000   1.0000   1.0000
     1.0000   1.0000   1.0000   1.0000   1.0000   1.0000   1.0000   1.0000
     1.0000   1.0000   1.0000   1.0000   1.0000   1.0000   1.0000   1.0000
     1.0000   1.0000   1.0000   1.0000   1.0000   1.0000   1.0000   1.0000
     1.0000   1.0000   1.0000   1.0000   1.0000   1.0000   1.0000   1.0000
     1.0000   1.0000   1.0000   1.0000   1.0000   1.0000   1.0000   1.0000
     1.0000   1.0000   1.0000   1.0000   1.0000   1.0000   1.0000   1.0000
     1.0000   1.0000   1.0000   1.0000   1.0000   1.0000   1.0000   1.0000
     1.0000   1.0000   1.0000   1.0000   1.0000   1.0000   1.0000   1.0000
     1.0000   1.0000   1.0000   1.0000   1.0000   1.0000   1.0000   1.0000
     1.0000   1.0000   1.0000   1.0000   1.0000   1.0000   1.0000   1.0000
     1.0000   1.0000   1.0000   1.0000   1.0000   1.0000   1.0000   1.0000
     1.0000   1.0000   1.0000   1.0000   1.0000   1.0000   1.0000   1.0000
     1.0000   1.0000   1.0000   1.0000   1.0000   1.0000   1.0000   1.0000
     1.0000   1.0000   1.0000   1.0000   1.0000   1.0000   1.0000   1.0000
     1.0000   1.0000   1.0000   1.0000   1.0000   1.0000   1.0000   1.0000
     1.0000   1.0000   1.0000   1.0000   1.0000   1.0000   1.0000   1.0000
     1.0000   1.0000   1.0000   1.0000   1.0000   1.0000   1.0000   0.0000
     1.0000   0.0000   0.0000   0.0000   0.0000   0.0000   0.0000   0.0000
     0.0000   0.0000   0.0000   0.0000   0.0000   0.0000   0.0000   0.0000
     0.0000   0.0000   0.0000   0.0000   0.0000   0.0000   0.0000   0.0000

 ------ SPIN DOWN ----------


          k = 0.0000 0.0000 0.0000 (144701 PWs)   bands (ev):

   -21.8207 -21.1782 -20.8567 -20.8190 -20.7636 -20.7370 -20.6390 -20.1184
   -19.9569 -19.8391 -19.7994 -19.7767 -19.6769 -19.5019 -19.4804 -19.4123
   -19.3410 -19.3234 -19.1248 -18.7394 -18.5128 -18.4241 -18.3826 -18.3607
   -18.3514 -18.3278 -18.3254 -18.2911 -18.2855 -18.2849 -18.2507 -18.1884
   -18.1647 -17.7743 -17.6664 -15.8350 -13.1052 -12.5452 -12.5385 -12.2185
   -11.9935 -11.8002 -11.7803 -11.7614 -11.7568 -11.7170 -11.6991 -11.6976
   -11.6731 -11.6264 -11.5945 -11.5697 -11.5277 -11.0119 -10.7960 -10.6730
   -10.6206 -10.5765 -10.5119 -10.4537 -10.4099  -9.5955  -9.4430  -9.2373
    -9.2267  -9.1983  -9.1809  -9.1361  -9.1225  -9.0511  -9.0405  -9.0311
    -9.0005  -8.9965  -8.9781  -8.9607  -8.9450  -8.9174  -8.8187  -8.6369
    -8.4286  -8.2327  -8.2166  -8.1640  -8.1337  -8.0485  -8.0359  -7.8640
    -7.8360  -7.7260  -7.6998  -7.6527  -7.6383  -7.5507  -7.5289  -7.3972
    -7.3281  -7.3161  -7.2654  -7.2548  -7.1458  -7.0469  -7.0390  -7.0265
    -7.0121  -6.9727  -6.9008  -6.8726  -6.8683  -6.8379  -6.8080  -6.7283
    -6.5359  -6.3600  -6.2889  -6.2883  -6.2111  -6.1857  -6.0691  -6.0439
    -5.9679  -5.9109  -5.9088  -5.8798  -5.4562  -5.0236  -5.0009  -4.9316
    -4.8026  -4.7748  -4.7620  -4.7410  -4.7288  -4.7256  -4.7164  -4.6906
    -4.6720  -4.6700  -4.6133  -4.5721  -4.5161  -4.1183  -3.6824  -3.4683
     0.7561   1.0708   1.0786   1.1315   1.1887   1.2085   1.5523   1.7448
     1.7980   1.8181   1.8258   1.8475   1.8657   1.8903   1.9028   1.9147
     1.9170   1.9208   1.9447   1.9653   1.9712   1.9848   2.0196   2.0582

     occupation numbers 
     1.0000   1.0000   1.0000   1.0000   1.0000   1.0000   1.0000   1.0000
     1.0000   1.0000   1.0000   1.0000   1.0000   1.0000   1.0000   1.0000
     1.0000   1.0000   1.0000   1.0000   1.0000   1.0000   1.0000   1.0000
     1.0000   1.0000   1.0000   1.0000   1.0000   1.0000   1.0000   1.0000
     1.0000   1.0000   1.0000   1.0000   1.0000   1.0000   1.0000   1.0000
     1.0000   1.0000   1.0000   1.0000   1.0000   1.0000   1.0000   1.0000
     1.0000   1.0000   1.0000   1.0000   1.0000   1.0000   1.0000   1.0000
     1.0000   1.0000   1.0000   1.0000   1.0000   1.0000   1.0000   1.0000
     1.0000   1.0000   1.0000   1.0000   1.0000   1.0000   1.0000   1.0000
     1.0000   1.0000   1.0000   1.0000   1.0000   1.0000   1.0000   1.0000
     1.0000   1.0000   1.0000   1.0000   1.0000   1.0000   1.0000   1.0000
     1.0000   1.0000   1.0000   1.0000   1.0000   1.0000   1.0000   1.0000
     1.0000   1.0000   1.0000   1.0000   1.0000   1.0000   1.0000   1.0000
     1.0000   1.0000   1.0000   1.0000   1.0000   1.0000   1.0000   1.0000
     1.0000   1.0000   1.0000   1.0000   1.0000   1.0000   1.0000   1.0000
     1.0000   1.0000   1.0000   1.0000   1.0000   1.0000   1.0000   1.0000
     1.0000   1.0000   1.0000   1.0000   1.0000   1.0000   1.0000   1.0000
     1.0000   1.0000   1.0000   1.0000   1.0000   1.0000   1.0000   1.0000
     0.0000   0.0000   0.0000   0.0000   0.0000   0.0000   0.0000   0.0000
     0.0000   0.0000   0.0000   0.0000   0.0000   0.0000   0.0000   0.0000
     0.0000   0.0000   0.0000   0.0000   0.0000   0.0000   0.0000   0.0000

     highest occupied, lowest unoccupied level (ev):    -3.4683   -3.0755

!    total energy              =    -923.68833245 Ry
     Harris-Foulkes estimate   =    -923.68833245 Ry
     estimated scf accuracy    <          4.4E-09 Ry

     The total energy is the sum of the following terms:

     one-electron contribution =   -6004.07081524 Ry
     hartree contribution      =    3060.18669792 Ry
     xc contribution           =    -264.85181379 Ry
     ewald contribution        =    2285.04759867 Ry

     total magnetization       =     0.00 Bohr mag/cell
     absolute magnetization    =     1.80 Bohr mag/cell

     convergence has been achieved in  16 iterations

     Writing output data file BN.save
 
     init_run     :      2.34s CPU      2.75s WALL (       1 calls)
     electrons    :     28.21s CPU     28.62s WALL (       1 calls)

     Called by init_run:
     wfcinit      :      0.51s CPU      0.55s WALL (       1 calls)
     wfcinit:atom :      0.00s CPU      0.01s WALL (       1 calls)
     wfcinit:wfcr :      0.49s CPU      0.51s WALL (       1 calls)
     potinit      :      0.41s CPU      0.42s WALL (       1 calls)

     Called by electrons:
     c_bands      :     25.42s CPU     25.70s WALL (      16 calls)
     sum_band     :      1.52s CPU      1.55s WALL (      16 calls)
     v_of_rho     :      0.79s CPU      0.80s WALL (      17 calls)
     v_h          :      0.04s CPU      0.04s WALL (      17 calls)
     v_xc         :      0.75s CPU      0.76s WALL (      17 calls)
     mix_rho      :      0.24s CPU      0.25s WALL (      16 calls)

     Called by c_bands:
     init_us_2    :      0.22s CPU      0.23s WALL (      33 calls)
     cegterg      :     22.87s CPU     23.14s WALL (      16 calls)

     Called by sum_band:

     Called by *egterg:
     h_psi        :     11.27s CPU     11.37s WALL (     102 calls)
     g_psi        :      0.05s CPU      0.05s WALL (      85 calls)
     cdiaghg      :      7.52s CPU      7.59s WALL (     101 calls)
     cegterg:over :      1.81s CPU      1.82s WALL (      85 calls)
     cegterg:upda :      1.11s CPU      1.12s WALL (      85 calls)
     cegterg:last :      0.37s CPU      0.38s WALL (      16 calls)

     Called by h_psi:
     h_psi:pot    :     11.08s CPU     11.18s WALL (     102 calls)
     h_psi:calbec :      1.69s CPU      1.69s WALL (     102 calls)
     vloc_psi     :      7.85s CPU      7.93s WALL (     102 calls)
     add_vuspsi   :      1.54s CPU      1.55s WALL (     102 calls)

     General routines
     calbec       :      1.69s CPU      1.69s WALL (     102 calls)
     fft          :      0.59s CPU      0.61s WALL (     354 calls)
     fftw         :      8.42s CPU      8.50s WALL (   19078 calls)
 
     Parallel routines
     fft_scatter  :      5.28s CPU      5.34s WALL (   19432 calls)
 
     PWSCF        :    33.29s CPU        35.57s WALL

 
   This run was terminated on:  22:59:56  10Feb2021            

=------------------------------------------------------------------------------=
   JOB DONE.
=------------------------------------------------------------------------------=
