
     Program PWSCF v.6.1 (svn rev. 13369) starts on 26Mar2020 at  9:36:26 

     This program is part of the open-source Quantum ESPRESSO suite
     for quantum simulation of materials; please cite
         "P. Giannozzi et al., J. Phys.:Condens. Matter 21 395502 (2009);
          URL http://www.quantum-espresso.org", 
     in publications or presentations arising from this work. More details at
     http://www.quantum-espresso.org/quote

     Parallel version (MPI), running on   360 processors
     K-points division:     npool     =      10
     R & G space division:  proc/nbgrp/npool/nimage =      36
     Reading input from relax.in

     Current dimensions of program PWSCF are:
     Max number of different atomic species (ntypx) = 10
     Max number of k-points (npk) =  40000
     Max angular momentum in pseudopotentials (lmaxx) =  3

     Subspace diagonalization in iterative solution of the eigenvalue problem:
     one sub-group per band group will be used
     scalapack distributed-memory algorithm (size of sub-group:  6*  6 procs)

 
     Parallelization info
     --------------------
     sticks:   dense  smooth     PW     G-vecs:    dense   smooth      PW
     Min         422     422    109                35974    35974    4737
     Max         423     423    110                35979    35979    4740
     Sum       15199   15199   3931              1295129  1295129  170579
 


     bravais-lattice index     =            0
     lattice parameter (alat)  =      33.2346  a.u.
     unit-cell volume          =   27114.5224 (a.u.)^3
     number of atoms/cell      =           97
     number of atomic types    =            3
     number of electrons       =       398.00
     number of Kohn-Sham states=          220
     kinetic-energy cutoff     =      50.0000  Ry
     charge density cutoff     =     200.0000  Ry
     convergence threshold     =      1.0E-08
     mixing beta               =       0.7000
     number of iterations used =            8  plain     mixing
     Exchange-correlation      = PBE ( 1  4  3  4 0 0)
     nstep                     =           50


     celldm(1)=  33.234606  celldm(2)=   0.000000  celldm(3)=   0.000000
     celldm(4)=   0.000000  celldm(5)=   0.000000  celldm(6)=   0.000000

     crystal axes: (cart. coord. in units of alat)
               a(1) = (   1.000000   0.000000   0.000000 )  
               a(2) = (  -0.500000   0.866026   0.000000 )  
               a(3) = (   0.000000   0.000000   0.852903 )  

     reciprocal axes: (cart. coord. in units 2 pi/alat)
               b(1) = (  1.000000  0.577350  0.000000 )  
               b(2) = (  0.000000  1.154700  0.000000 )  
               b(3) = (  0.000000  0.000000  1.172466 )  


     PseudoPot. # 1 for B  read from file:
     /g/g13/smart8/Pseudo/B_ONCV_PBE-1.0.upf
     MD5 check sum: a9fd2462c33df863cd3ce8a66ea40380
     Pseudo is Norm-conserving, Zval =  3.0
     Generated using ONCVPSP code by D. R. Hamann
     Using radial grid of 1534 points,  4 beta functions with: 
                l(1) =   0
                l(2) =   0
                l(3) =   1
                l(4) =   1

     PseudoPot. # 2 for N  read from file:
     /g/g13/smart8/Pseudo/N_ONCV_PBE-1.0.upf
     MD5 check sum: 09890da6b2972017450f7114a6086fad
     Pseudo is Norm-conserving, Zval =  5.0
     Generated using ONCVPSP code by D. R. Hamann
     Using radial grid of 1058 points,  4 beta functions with: 
                l(1) =   0
                l(2) =   0
                l(3) =   1
                l(4) =   1

     PseudoPot. # 3 for Ti read from file:
     /g/g13/smart8/Pseudo/Ti_ONCV_PBE-1.0.upf
     MD5 check sum: 4c1f1eb84d597b0c1f6d2d217b0e28bb
     Pseudo is Norm-conserving, Zval = 12.0
     Generated using ONCVPSP code by D. R. Hamann
     Using radial grid of 1586 points,  6 beta functions with: 
                l(1) =   0
                l(2) =   0
                l(3) =   1
                l(4) =   1
                l(5) =   2
                l(6) =   2

     atomic species   valence    mass     pseudopotential
        B              3.00    10.81100     B ( 1.00)
        N              5.00    14.00674     N ( 1.00)
        Ti            12.00    47.86700     Ti( 1.00)

     Starting magnetic structure 
     atomic species   magnetization
        B            0.000
        N            0.000
        Ti           1.000

     No symmetry found


                                    s                        frac. trans.

      isym =  1     identity                                     

 cryst.   s( 1) = (     1          0          0      )
                  (     0          1          0      )
                  (     0          0          1      )

 cart.    s( 1) = (  1.0000000  0.0000000  0.0000000 )
                  (  0.0000000  1.0000000  0.0000000 )
                  (  0.0000000  0.0000000  1.0000000 )


   Cartesian axes

     site n.     atom                  positions (alat units)
         1           B   tau(   1) = (  -0.0003377   0.0818714   0.4154202  )
         2           B   tau(   2) = (  -0.0719472   0.2056548   0.4187392  )
         3           B   tau(   3) = (  -0.1432099   0.3292802   0.4232449  )
         4           B   tau(   4) = (  -0.2141822   0.4528849   0.4247936  )
         5           B   tau(   5) = (  -0.2853231   0.5765360   0.4230641  )
         6           B   tau(   6) = (  -0.3568890   0.7003740   0.4188589  )
         7           B   tau(   7) = (  -0.4284663   0.8242505   0.4158871  )
         8           B   tau(   8) = (   0.1427124   0.0818425   0.4173936  )
         9           B   tau(   9) = (   0.0708304   0.2050529   0.4191520  )
        10           B   tau(  10) = (  -0.0001370   0.3288829   0.4260312  )
        11           B   tau(  11) = (  -0.0704682   0.4523987   0.4290977  )
        12           B   tau(  12) = (  -0.1415678   0.5762428   0.4269504  )
        13           B   tau(  13) = (  -0.2135735   0.7002223   0.4229194  )
        14           B   tau(  14) = (  -0.2853755   0.8242351   0.4192674  )
        15           B   tau(  15) = (   0.2857848   0.0823461   0.4226184  )
        16           B   tau(  16) = (   0.2137344   0.2055619   0.4238021  )
        17           B   tau(  17) = (   0.1416507   0.3276256   0.4358479  )
        18           B   tau(  18) = (   0.0739214   0.4504301   0.4431572  )
        19           B   tau(  19) = (   0.0026075   0.5754432   0.4347912  )
        20           B   tau(  20) = (  -0.0701986   0.6998816   0.4271156  )
        21           B   tau(  21) = (  -0.1423296   0.8242112   0.4233432  )
        22           B   tau(  22) = (   0.4282816   0.0828330   0.4258987  )
        23           B   tau(  23) = (   0.3559609   0.2075509   0.4310179  )
        24           B   tau(  24) = (   0.2820785   0.3309184   0.4519539  )
        25           B   tau(  25) = (   0.1465494   0.5762761   0.4438053  )
        26           B   tau(  26) = (   0.0726138   0.7002465   0.4293460  )
        27           B   tau(  27) = (   0.0003387   0.8244465   0.4251129  )
        28           B   tau(  28) = (   0.5710033   0.0826896   0.4250773  )
        29           B   tau(  29) = (   0.4989080   0.2068159   0.4297325  )
        30           B   tau(  30) = (   0.4261565   0.3309555   0.4388755  )
        31           B   tau(  31) = (   0.3542592   0.4557908   0.4533548  )
        32           B   tau(  32) = (   0.2867980   0.5789690   0.4365701  )
        33           B   tau(  33) = (   0.2147581   0.7010577   0.4259399  )
        34           B   tau(  34) = (   0.1428729   0.8247609   0.4230897  )
        35           B   tau(  35) = (   0.7138318   0.0825071   0.4210906  )
        36           B   tau(  36) = (   0.6420519   0.2062275   0.4256980  )
        37           B   tau(  37) = (   0.5700028   0.3299180   0.4297368  )
        38           B   tau(  38) = (   0.4979216   0.4533625   0.4314398  )
        39           B   tau(  39) = (   0.4284696   0.5774565   0.4235522  )
        40           B   tau(  40) = (   0.3574367   0.7014284   0.4181394  )
        41           B   tau(  41) = (   0.2855459   0.8248193   0.4178612  )
        42           B   tau(  42) = (   0.8567000   0.0822877   0.4169172  )
        43           B   tau(  43) = (   0.7850758   0.2059274   0.4214063  )
        44           B   tau(  44) = (   0.7135216   0.3295425   0.4249562  )
        45           B   tau(  45) = (   0.6420526   0.4530676   0.4256710  )
        46           B   tau(  46) = (   0.5712098   0.5766832   0.4221202  )
        47           B   tau(  47) = (   0.5000806   0.7007867   0.4163194  )
        48           B   tau(  48) = (   0.4285222   0.8246534   0.4147109  )
        49           N   tau(  49) = (   0.0711721   0.0404433   0.4156304  )
        50           N   tau(  50) = (  -0.0009355   0.1638759   0.4165229  )
        51           N   tau(  51) = (  -0.0722693   0.2877993   0.4219449  )
        52           N   tau(  52) = (  -0.1429089   0.4116726   0.4250545  )
        53           N   tau(  53) = (  -0.2136841   0.5354266   0.4246509  )
        54           N   tau(  54) = (  -0.2851663   0.6591706   0.4215919  )
        55           N   tau(  55) = (  -0.3568338   0.7829195   0.4175860  )
        56           N   tau(  56) = (   0.2143550   0.0403602   0.4189248  )
        57           N   tau(  57) = (   0.1421208   0.1634189   0.4184605  )
        58           N   tau(  58) = (   0.0699618   0.2863973   0.4242542  )
        59           N   tau(  59) = (  -0.0000186   0.4110490   0.4316778  )
        60           N   tau(  60) = (  -0.0703616   0.5351246   0.4307149  )
        61           N   tau(  61) = (  -0.1421101   0.6589713   0.4257406  )
        62           N   tau(  62) = (  -0.2138102   0.7827532   0.4217221  )
        63           N   tau(  63) = (   0.3573463   0.0405572   0.4237663  )
        64           N   tau(  64) = (   0.2855089   0.1639471   0.4254783  )
        65           N   tau(  65) = (   0.2130744   0.2858220   0.4314822  )
        66           N   tau(  66) = (   0.1409372   0.4065815   0.4522933  )
        67           N   tau(  67) = (   0.0733399   0.5346370   0.4425922  )
        68           N   tau(  68) = (   0.0010225   0.6587913   0.4308610  )
        69           N   tau(  69) = (  -0.0709015   0.7827466   0.4249608  )
        70           N   tau(  70) = (   0.4998624   0.0411113   0.4252581  )
        71           N   tau(  71) = (   0.4279171   0.1650691   0.4286765  )
        72           N   tau(  72) = (   0.3552681   0.2889349   0.4400575  )
        73           N   tau(  73) = (   0.2180552   0.5403599   0.4537212  )
        74           N   tau(  74) = (   0.1436612   0.6599472   0.4320710  )
        75           N   tau(  75) = (   0.0716707   0.7833362   0.4252576  )
        76           N   tau(  76) = (   0.6425072   0.0414368   0.4227387  )
        77           N   tau(  77) = (   0.5707796   0.1650694   0.4269373  )
        78           N   tau(  78) = (   0.4987115   0.2890028   0.4325142  )
        79           N   tau(  79) = (   0.4271561   0.4133247   0.4410202  )
        80           N   tau(  80) = (   0.3587039   0.5379921   0.4321626  )
        81           N   tau(  81) = (   0.2865832   0.6615507   0.4240286  )
        82           N   tau(  82) = (   0.2142543   0.7840386   0.4214640  )
        83           N   tau(  83) = (   0.7852628   0.0414110   0.4178362  )
        84           N   tau(  84) = (   0.7136313   0.1648961   0.4227151  )
        85           N   tau(  85) = (   0.6420815   0.2885286   0.4268223  )
        86           N   tau(  86) = (   0.5706738   0.4122681   0.4287462  )
        87           N   tau(  87) = (   0.5004329   0.5361455   0.4254433  )
        88           N   tau(  88) = (   0.4291374   0.6605077   0.4172630  )
        89           N   tau(  89) = (   0.3572019   0.7841709   0.4152909  )
        90           N   tau(  90) = (   0.9281254   0.0410177   0.4150616  )
        91           N   tau(  91) = (   0.8563777   0.1645919   0.4185189  )
        92           N   tau(  92) = (   0.7849932   0.2882342   0.4229233  )
        93           N   tau(  93) = (   0.7139707   0.4119418   0.4248956  )
        94           N   tau(  94) = (   0.6431882   0.5356273   0.4234488  )
        95           N   tau(  95) = (   0.5718415   0.6595108   0.4179787  )
        96           N   tau(  96) = (   0.5001581   0.7834459   0.4148722  )
        97           Ti  tau(  97) = (   0.2398564   0.4381657   0.5039130  )

   Crystallographic axes

     site n.     atom                  positions (cryst. coord.)
         1           B   tau(   1) = (  0.0469307  0.0945369  0.4870663  )
         2           B   tau(   2) = (  0.0467876  0.2374696  0.4909576  )
         3           B   tau(   3) = (  0.0469001  0.3802200  0.4962405  )
         4           B   tau(   4) = (  0.0472910  0.5229463  0.4980562  )
         5           B   tau(   5) = (  0.0475400  0.6657263  0.4960285  )
         6           B   tau(   6) = (  0.0474720  0.8087220  0.4910980  )
         7           B   tau(   7) = (  0.0474148  0.9517622  0.4876136  )
         8           B   tau(   8) = (  0.1899642  0.0945036  0.4893799  )
         9           B   tau(   9) = (  0.1892177  0.2367746  0.4914416  )
        10           B   tau(  10) = (  0.1897436  0.3797612  0.4995072  )
        11           B   tau(  11) = (  0.1907242  0.5223849  0.5031026  )
        12           B   tau(  12) = (  0.1911260  0.6653877  0.5005850  )
        13           B   tau(  13) = (  0.1906999  0.8085468  0.4958588  )
        14           B   tau(  14) = (  0.1904967  0.9517444  0.4915770  )
        15           B   tau(  15) = (  0.3333274  0.0950851  0.4955058  )
        16           B   tau(  16) = (  0.3324156  0.2373624  0.4968938  )
        17           B   tau(  17) = (  0.3308053  0.3783094  0.5110170  )
        18           B   tau(  18) = (  0.3339773  0.5201118  0.5195869  )
        19           B   tau(  19) = (  0.3348397  0.6644644  0.5097780  )
        20           B   tau(  20) = (  0.3338781  0.8081535  0.5007787  )
        21           B   tau(  21) = (  0.3335288  0.9517169  0.4963557  )
        22           B   tau(  22) = (  0.4761053  0.0956473  0.4993519  )
        23           B   tau(  23) = (  0.4757905  0.2396591  0.5053540  )
        24           B   tau(  24) = (  0.4731342  0.3821115  0.5299008  )
        25           B   tau(  25) = (  0.4792624  0.6654261  0.5203468  )
        26           B   tau(  26) = (  0.4769012  0.8085748  0.5033937  )
        27           B   tau(  27) = (  0.4763330  0.9519885  0.4984306  )
        28           B   tau(  28) = (  0.6187442  0.0954817  0.4983888  )
        29           B   tau(  29) = (  0.6183132  0.2388104  0.5038469  )
        30           B   tau(  30) = (  0.6172336  0.3821543  0.5145668  )
        31           B   tau(  31) = (  0.6174101  0.5263018  0.5315432  )
        32           B   tau(  32) = (  0.6210658  0.6685356  0.5118638  )
        33           B   tau(  33) = (  0.6195138  0.8095114  0.4994002  )
        34           B   tau(  34) = (  0.6190486  0.9523516  0.4960585  )
        35           B   tau(  35) = (  0.7614672  0.0952709  0.4937146  )
        36           B   tau(  36) = (  0.7611174  0.2381309  0.4991166  )
        37           B   tau(  37) = (  0.7604810  0.3809563  0.5038520  )
        38           B   tau(  38) = (  0.7596704  0.5234977  0.5058487  )
        39           B   tau(  39) = (  0.7618642  0.6667892  0.4966008  )
        40           B   tau(  40) = (  0.7624065  0.8099395  0.4902544  )
        41           B   tau(  41) = (  0.7617554  0.9524191  0.4899282  )
        42           B   tau(  42) = (  0.9042088  0.0950176  0.4888214  )
        43           B   tau(  43) = (  0.9039680  0.2377844  0.4940847  )
        44           B   tau(  44) = (  0.9037830  0.3805227  0.4982469  )
        45           B   tau(  45) = (  0.9036313  0.5231573  0.4990849  )
        46           B   tau(  46) = (  0.9041579  0.6658962  0.4949217  )
        47           B   tau(  47) = (  0.9046799  0.8091986  0.4881205  )
        48           B   tau(  48) = (  0.9046359  0.9522274  0.4862345  )
        49           N   tau(  49) = (  0.0945221  0.0466999  0.4873127  )
        50           N   tau(  50) = (  0.0936782  0.1892275  0.4883591  )
        51           N   tau(  51) = (  0.0938917  0.3323219  0.4947162  )
        52           N   tau(  52) = (  0.0947703  0.4753584  0.4983622  )
        53           N   tau(  53) = (  0.0954445  0.6182572  0.4978889  )
        54           N   tau(  54) = (  0.0954059  0.7611445  0.4943023  )
        55           N   tau(  55) = (  0.0951849  0.9040374  0.4896055  )
        56           N   tau(  56) = (  0.2376570  0.0466039  0.4911752  )
        57           N   tau(  57) = (  0.2364707  0.1886998  0.4906309  )
        58           N   tau(  58) = (  0.2353133  0.3307030  0.4974238  )
        59           N   tau(  59) = (  0.2373006  0.4746384  0.5061277  )
        60           N   tau(  60) = (  0.2385926  0.6179084  0.5049987  )
        61           N   tau(  61) = (  0.2383470  0.7609143  0.4991666  )
        62           N   tau(  62) = (  0.2381124  0.9038453  0.4944550  )
        63           N   tau(  63) = (  0.3807621  0.0468314  0.4968518  )
        64           N   tau(  64) = (  0.3801637  0.1893098  0.4988590  )
        65           N   tau(  65) = (  0.3780938  0.3300387  0.5058984  )
        66           N   tau(  66) = (  0.3756771  0.4694798  0.5302987  )
        67           N   tau(  67) = (  0.3820126  0.6173454  0.5189244  )
        68           N   tau(  68) = (  0.3813757  0.7607065  0.5051700  )
        69           N   tau(  69) = (  0.3810173  0.9038377  0.4982522  )
        70           N   tau(  70) = (  0.5235980  0.0474712  0.4986008  )
        71           N   tau(  71) = (  0.5232197  0.1906053  0.5026088  )
        72           N   tau(  72) = (  0.5220847  0.3336332  0.5159527  )
        73           N   tau(  73) = (  0.5300321  0.6239537  0.5319728  )
        74           N   tau(  74) = (  0.5246818  0.7620412  0.5065887  )
        75           N   tau(  75) = (  0.5239299  0.9045184  0.4986002  )
        76           N   tau(  76) = (  0.6664307  0.0478470  0.4956470  )
        77           N   tau(  77) = (  0.6660825  0.1906057  0.5005697  )
        78           N   tau(  78) = (  0.6655673  0.3337116  0.5071083  )
        79           N   tau(  79) = (  0.6657891  0.4772661  0.5170814  )
        80           N   tau(  80) = (  0.6693137  0.6212196  0.5066961  )
        81           N   tau(  81) = (  0.6685296  0.7638928  0.4971592  )
        82           N   tau(  82) = (  0.6669191  0.9053295  0.4941523  )
        83           N   tau(  83) = (  0.8091715  0.0478173  0.4898989  )
        84           N   tau(  84) = (  0.8088340  0.1904055  0.4956193  )
        85           N   tau(  85) = (  0.8086635  0.3331640  0.5004349  )
        86           N   tau(  86) = (  0.8086968  0.4760460  0.5026905  )
        87           N   tau(  87) = (  0.8099766  0.6190873  0.4988180  )
        88           N   tau(  88) = (  0.8104816  0.7626883  0.4892268  )
        89           N   tau(  89) = (  0.8099431  0.9054823  0.4869147  )
        90           N   tau(  90) = (  0.9518070  0.0473632  0.4866458  )
        91           N   tau(  91) = (  0.9514049  0.1900543  0.4906993  )
        92           N   tau(  92) = (  0.9514053  0.3328241  0.4958634  )
        93           N   tau(  93) = (  0.9518053  0.4756693  0.4981758  )
        94           N   tau(  94) = (  0.9524327  0.6184890  0.4964795  )
        95           N   tau(  95) = (  0.9526101  0.7615372  0.4900659  )
        96           N   tau(  96) = (  0.9524807  0.9046451  0.4864238  )
        97           Ti  tau(  97) = (  0.4928314  0.5059500  0.5908211  )

     number of k points=     5  Marzari-Vanderbilt smearing, width (Ry)=  0.0010
                       cart. coord. in units 2pi/alat
        k(    1) = (   0.0000000   0.0000000   0.0000000), wk =   0.1111111
        k(    2) = (   0.0000000   0.3849001   0.0000000), wk =   0.2222222
        k(    3) = (   0.3333333   0.5773501   0.0000000), wk =   0.2222222
        k(    4) = (  -0.3333333   0.1924500   0.0000000), wk =   0.2222222
        k(    5) = (   0.3333333   0.1924500   0.0000000), wk =   0.2222222

                       cryst. coord.
        k(    1) = (   0.0000000   0.0000000   0.0000000), wk =   0.1111111
        k(    2) = (   0.0000000   0.3333333   0.0000000), wk =   0.2222222
        k(    3) = (   0.3333333   0.3333333   0.0000000), wk =   0.2222222
        k(    4) = (  -0.3333333   0.3333333   0.0000000), wk =   0.2222222
        k(    5) = (   0.3333333  -0.0000000   0.0000000), wk =   0.2222222

     Dense  grid:  1295129 G-vectors     FFT dimensions: ( 150, 150, 128)

     Estimated max dynamical RAM per process >     168.78MB

     Estimated total allocated dynamical RAM >   60759.06MB
     Generating pointlists ...
     new r_m :   0.0332 (alat units)  1.1050 (a.u.) for type    1
     new r_m :   0.0332 (alat units)  1.1050 (a.u.) for type    2
     new r_m :   0.0478 (alat units)  1.5892 (a.u.) for type    3

     The initial density is read from file :
     ./temp/BN.save/charge-density.dat

     Starting wfc are  394 randomized atomic wfcs

     total cpu time spent up to now is       11.2 secs

     per-process dynamical memory:   148.0 Mb

     Self-consistent Calculation

     iteration #  1     ecut=    50.00 Ry     beta=0.70
     Davidson diagonalization with overlap
     ethr =  1.00E-05,  avg # of iterations = 19.9

     Threshold (ethr) on eigenvalues was too large:
     Diagonalizing with lowered threshold

     Davidson diagonalization with overlap
     ethr =  1.74E-08,  avg # of iterations =  4.0

     total cpu time spent up to now is       41.6 secs

     total energy              =   -1350.38212857 Ry
     Harris-Foulkes estimate   =   -1350.38213978 Ry
     estimated scf accuracy    <       0.00003785 Ry

     total magnetization       =     2.00 Bohr mag/cell
     absolute magnetization    =     2.15 Bohr mag/cell

     iteration #  2     ecut=    50.00 Ry     beta=0.70
     Davidson diagonalization with overlap
     ethr =  9.51E-09,  avg # of iterations =  7.0

     total cpu time spent up to now is       52.5 secs

     total energy              =   -1350.38211664 Ry
     Harris-Foulkes estimate   =   -1350.38215319 Ry
     estimated scf accuracy    <       0.00010138 Ry

     total magnetization       =     2.00 Bohr mag/cell
     absolute magnetization    =     2.15 Bohr mag/cell

     iteration #  3     ecut=    50.00 Ry     beta=0.70
     Davidson diagonalization with overlap
     ethr =  9.51E-09,  avg # of iterations =  6.6

     total cpu time spent up to now is       59.9 secs

     total energy              =   -1350.38213267 Ry
     Harris-Foulkes estimate   =   -1350.38215154 Ry
     estimated scf accuracy    <       0.00008941 Ry

     total magnetization       =     2.00 Bohr mag/cell
     absolute magnetization    =     2.15 Bohr mag/cell

     iteration #  4     ecut=    50.00 Ry     beta=0.70
     Davidson diagonalization with overlap
     ethr =  9.51E-09,  avg # of iterations =  5.4

     total cpu time spent up to now is       66.9 secs

     total energy              =   -1350.38214231 Ry
     Harris-Foulkes estimate   =   -1350.38214275 Ry
     estimated scf accuracy    <       0.00000158 Ry

     total magnetization       =     2.00 Bohr mag/cell
     absolute magnetization    =     2.15 Bohr mag/cell

     iteration #  5     ecut=    50.00 Ry     beta=0.70
     Davidson diagonalization with overlap
     ethr =  3.96E-10,  avg # of iterations =  5.2

     total cpu time spent up to now is       74.6 secs

     total energy              =   -1350.38214274 Ry
     Harris-Foulkes estimate   =   -1350.38214285 Ry
     estimated scf accuracy    <       0.00000040 Ry

     total magnetization       =     2.00 Bohr mag/cell
     absolute magnetization    =     2.15 Bohr mag/cell

     iteration #  6     ecut=    50.00 Ry     beta=0.70
     Davidson diagonalization with overlap
     ethr =  1.00E-10,  avg # of iterations =  5.0

     total cpu time spent up to now is       82.1 secs

     total energy              =   -1350.38214286 Ry
     Harris-Foulkes estimate   =   -1350.38214287 Ry
     estimated scf accuracy    <       0.00000008 Ry

     total magnetization       =     2.00 Bohr mag/cell
     absolute magnetization    =     2.15 Bohr mag/cell

     iteration #  7     ecut=    50.00 Ry     beta=0.70
     Davidson diagonalization with overlap
     ethr =  1.98E-11,  avg # of iterations =  5.3
 
     Magnetic moment per site:
     atom:    1    charge:    0.8304    magn:    0.0002    constr:    0.0000
     atom:    2    charge:    0.8294    magn:    0.0005    constr:    0.0000
     atom:    3    charge:    0.8302    magn:    0.0000    constr:    0.0000
     atom:    4    charge:    0.8266    magn:    0.0000    constr:    0.0000
     atom:    5    charge:    0.8256    magn:    0.0001    constr:    0.0000
     atom:    6    charge:    0.8269    magn:    0.0002    constr:    0.0000
     atom:    7    charge:    0.8294    magn:    0.0000    constr:    0.0000
     atom:    8    charge:    0.8301    magn:    0.0001    constr:    0.0000
     atom:    9    charge:    0.8334    magn:    0.0012    constr:    0.0000
     atom:   10    charge:    0.8282    magn:    0.0007    constr:    0.0000
     atom:   11    charge:    0.8248    magn:   -0.0001    constr:    0.0000
     atom:   12    charge:    0.8231    magn:    0.0000    constr:    0.0000
     atom:   13    charge:    0.8243    magn:    0.0002    constr:    0.0000
     atom:   14    charge:    0.8276    magn:    0.0003    constr:    0.0000
     atom:   15    charge:    0.8274    magn:    0.0010    constr:    0.0000
     atom:   16    charge:    0.8348    magn:    0.0032    constr:    0.0000
     atom:   17    charge:    0.8314    magn:    0.0040    constr:    0.0000
     atom:   18    charge:    0.8135    magn:   -0.0001    constr:    0.0000
     atom:   19    charge:    0.8166    magn:    0.0004    constr:    0.0000
     atom:   20    charge:    0.8219    magn:    0.0000    constr:    0.0000
     atom:   21    charge:    0.8255    magn:    0.0001    constr:    0.0000
     atom:   22    charge:    0.8245    magn:   -0.0000    constr:    0.0000
     atom:   23    charge:    0.8198    magn:    0.0020    constr:    0.0000
     atom:   24    charge:    0.7529    magn:    0.0318    constr:    0.0000
     atom:   25    charge:    0.8119    magn:    0.0001    constr:    0.0000
     atom:   26    charge:    0.8251    magn:   -0.0000    constr:    0.0000
     atom:   27    charge:    0.8270    magn:    0.0000    constr:    0.0000
     atom:   28    charge:    0.8273    magn:    0.0002    constr:    0.0000
     atom:   29    charge:    0.8254    magn:    0.0022    constr:    0.0000
     atom:   30    charge:    0.8169    magn:    0.0110    constr:    0.0000
     atom:   31    charge:    0.7524    magn:    0.0308    constr:    0.0000
     atom:   32    charge:    0.8307    magn:    0.0040    constr:    0.0000
     atom:   33    charge:    0.8278    magn:    0.0007    constr:    0.0000
     atom:   34    charge:    0.8288    magn:    0.0000    constr:    0.0000
     atom:   35    charge:    0.8291    magn:    0.0004    constr:    0.0000
     atom:   36    charge:    0.8291    magn:    0.0011    constr:    0.0000
     atom:   37    charge:    0.8259    magn:    0.0022    constr:    0.0000
     atom:   38    charge:    0.8200    magn:    0.0019    constr:    0.0000
     atom:   39    charge:    0.8349    magn:    0.0030    constr:    0.0000
     atom:   40    charge:    0.8327    magn:    0.0011    constr:    0.0000
     atom:   41    charge:    0.8290    magn:    0.0005    constr:    0.0000
     atom:   42    charge:    0.8285    magn:    0.0004    constr:    0.0000
     atom:   43    charge:    0.8297    magn:    0.0004    constr:    0.0000
     atom:   44    charge:    0.8280    magn:    0.0002    constr:    0.0000
     atom:   45    charge:    0.8252    magn:   -0.0000    constr:    0.0000
     atom:   46    charge:    0.8277    magn:    0.0010    constr:    0.0000
     atom:   47    charge:    0.8298    magn:    0.0001    constr:    0.0000
     atom:   48    charge:    0.8302    magn:    0.0002    constr:    0.0000
     atom:   49    charge:    2.7520    magn:   -0.0001    constr:    0.0000
     atom:   50    charge:    2.7538    magn:   -0.0003    constr:    0.0000
     atom:   51    charge:    2.7512    magn:   -0.0003    constr:    0.0000
     atom:   52    charge:    2.7477    magn:   -0.0000    constr:    0.0000
     atom:   53    charge:    2.7485    magn:   -0.0001    constr:    0.0000
     atom:   54    charge:    2.7481    magn:    0.0001    constr:    0.0000
     atom:   55    charge:    2.7492    magn:   -0.0000    constr:    0.0000
     atom:   56    charge:    2.7496    magn:    0.0002    constr:    0.0000
     atom:   57    charge:    2.7532    magn:   -0.0008    constr:    0.0000
     atom:   58    charge:    2.7554    magn:   -0.0009    constr:    0.0000
     atom:   59    charge:    2.7451    magn:   -0.0003    constr:    0.0000
     atom:   60    charge:    2.7442    magn:   -0.0001    constr:    0.0000
     atom:   61    charge:    2.7482    magn:    0.0000    constr:    0.0000
     atom:   62    charge:    2.7491    magn:    0.0001    constr:    0.0000
     atom:   63    charge:    2.7503    magn:    0.0000    constr:    0.0000
     atom:   64    charge:    2.7511    magn:    0.0007    constr:    0.0000
     atom:   65    charge:    2.7458    magn:    0.0017    constr:    0.0000
     atom:   66    charge:    2.7223    magn:   -0.0068    constr:    0.0000
     atom:   67    charge:    2.7288    magn:    0.0003    constr:    0.0000
     atom:   68    charge:    2.7442    magn:   -0.0001    constr:    0.0000
     atom:   69    charge:    2.7484    magn:   -0.0001    constr:    0.0000
     atom:   70    charge:    2.7502    magn:   -0.0001    constr:    0.0000
     atom:   71    charge:    2.7463    magn:   -0.0011    constr:    0.0000
     atom:   72    charge:    2.7318    magn:   -0.0029    constr:    0.0000
     atom:   73    charge:    2.7225    magn:   -0.0065    constr:    0.0000
     atom:   74    charge:    2.7463    magn:   -0.0003    constr:    0.0000
     atom:   75    charge:    2.7490    magn:   -0.0000    constr:    0.0000
     atom:   76    charge:    2.7516    magn:   -0.0002    constr:    0.0000
     atom:   77    charge:    2.7495    magn:   -0.0006    constr:    0.0000
     atom:   78    charge:    2.7413    magn:   -0.0022    constr:    0.0000
     atom:   79    charge:    2.7328    magn:   -0.0030    constr:    0.0000
     atom:   80    charge:    2.7450    magn:    0.0016    constr:    0.0000
     atom:   81    charge:    2.7548    magn:   -0.0009    constr:    0.0000
     atom:   82    charge:    2.7510    magn:   -0.0003    constr:    0.0000
     atom:   83    charge:    2.7524    magn:   -0.0003    constr:    0.0000
     atom:   84    charge:    2.7504    magn:   -0.0003    constr:    0.0000
     atom:   85    charge:    2.7483    magn:   -0.0006    constr:    0.0000
     atom:   86    charge:    2.7464    magn:   -0.0011    constr:    0.0000
     atom:   87    charge:    2.7511    magn:    0.0006    constr:    0.0000
     atom:   88    charge:    2.7520    magn:   -0.0008    constr:    0.0000
     atom:   89    charge:    2.7538    magn:   -0.0003    constr:    0.0000
     atom:   90    charge:    2.7532    magn:   -0.0002    constr:    0.0000
     atom:   91    charge:    2.7535    magn:   -0.0003    constr:    0.0000
     atom:   92    charge:    2.7511    magn:   -0.0002    constr:    0.0000
     atom:   93    charge:    2.7499    magn:   -0.0001    constr:    0.0000
     atom:   94    charge:    2.7499    magn:    0.0000    constr:    0.0000
     atom:   95    charge:    2.7489    magn:    0.0002    constr:    0.0000
     atom:   96    charge:    2.7511    magn:   -0.0001    constr:    0.0000
     atom:   97    charge:    8.9001    magn:    0.3858    constr:    0.0000

     total cpu time spent up to now is       89.7 secs

     End of self-consistent calculation

 ------ SPIN UP ------------


          k = 0.0000 0.0000 0.0000 (161811 PWs)   bands (ev):

   -56.1915 -32.8264 -32.4943 -32.2815 -20.5924 -20.3290 -20.2479 -20.2292
   -20.0196 -19.9784 -19.6612 -19.4038 -19.3937 -19.3933 -19.3787 -19.3574
   -19.2680 -19.0142 -18.9380 -18.9171 -18.7470 -18.6658 -18.3075 -18.2443
   -18.2420 -18.2304 -18.2274 -18.2147 -18.2075 -17.9631 -17.9533 -17.9120
   -17.9017 -17.8990 -17.7984 -17.6564 -17.6033 -17.5934 -17.4689 -17.4556
   -17.3463 -17.3345 -17.3052 -17.2315 -17.1764 -17.0430 -17.0146 -16.9353
   -16.7287 -16.5469 -15.9635 -15.7846 -11.6327 -11.6042 -11.5961 -11.5088
   -11.4912 -11.4800 -11.3989 -11.3829 -11.3788 -10.9479 -10.9151 -10.9029
   -10.9000 -10.8900 -10.7547 -10.6716 -10.5672 -10.5613 -10.1654 -10.1554
   -10.1463 -10.1284 -10.1028 -10.0515  -9.9954  -9.8895  -9.8344  -9.6993
    -9.5751  -9.5636  -9.4996  -9.4695  -9.2069  -9.2017  -8.9916  -8.9389
    -8.7294  -8.6227  -8.6006  -8.5507  -8.3962  -8.2366  -8.1865  -8.0935
    -8.0854  -8.0413  -8.0404  -7.9741  -7.9402  -7.8083  -7.7249  -7.7152
    -7.7091  -7.6958  -7.6794  -7.6778  -7.6578  -7.6528  -7.5514  -7.4904
    -7.4794  -7.4712  -7.4467  -7.4355  -7.4136  -7.3907  -7.3607  -7.3445
    -7.1784  -7.1383  -7.0373  -7.0305  -6.9909  -6.9833  -6.9309  -6.5972
    -6.5879  -6.5834  -6.5679  -6.5612  -6.4681  -6.4571  -6.3936  -6.3440
    -6.3229  -6.3157  -6.2894  -6.2800  -6.2056  -6.1785  -6.0936  -6.0296
    -6.0101  -5.9157  -5.8794  -5.8645  -5.8433  -5.7973  -5.7671  -5.7468
    -5.6795  -5.6786  -5.5613  -5.5573  -5.3521  -5.2391  -5.0936  -5.0025
    -4.9367  -4.9261  -4.9232  -4.9216  -4.9134  -4.9040  -4.8969  -4.6521
    -4.6341  -4.6032  -4.5949  -4.5903  -4.5092  -4.4719  -4.4121  -4.3738
    -4.2824  -4.1475  -4.0662  -4.0576  -4.0421  -3.9429  -3.7767  -3.5853
    -3.5600  -3.5409  -3.4730  -3.4145  -3.4073  -3.3108  -3.2685  -3.1518
    -3.1251  -2.8259  -2.4814  -2.1949  -1.8406   0.3066   0.7224   0.8854
     1.1590   1.6518   1.6812   1.6962   1.7019   1.7337   1.7875   1.8128
     1.8230   1.8293   1.8459   1.8544   1.8568   1.8966   1.9059   1.9713
     2.0733   2.1280   2.1530   2.1752

     occupation numbers 
     1.0000   1.0000   1.0000   1.0000   1.0000   1.0000   1.0000   1.0000
     1.0000   1.0000   1.0000   1.0000   1.0000   1.0000   1.0000   1.0000
     1.0000   1.0000   1.0000   1.0000   1.0000   1.0000   1.0000   1.0000
     1.0000   1.0000   1.0000   1.0000   1.0000   1.0000   1.0000   1.0000
     1.0000   1.0000   1.0000   1.0000   1.0000   1.0000   1.0000   1.0000
     1.0000   1.0000   1.0000   1.0000   1.0000   1.0000   1.0000   1.0000
     1.0000   1.0000   1.0000   1.0000   1.0000   1.0000   1.0000   1.0000
     1.0000   1.0000   1.0000   1.0000   1.0000   1.0000   1.0000   1.0000
     1.0000   1.0000   1.0000   1.0000   1.0000   1.0000   1.0000   1.0000
     1.0000   1.0000   1.0000   1.0000   1.0000   1.0000   1.0000   1.0000
     1.0000   1.0000   1.0000   1.0000   1.0000   1.0000   1.0000   1.0000
     1.0000   1.0000   1.0000   1.0000   1.0000   1.0000   1.0000   1.0000
     1.0000   1.0000   1.0000   1.0000   1.0000   1.0000   1.0000   1.0000
     1.0000   1.0000   1.0000   1.0000   1.0000   1.0000   1.0000   1.0000
     1.0000   1.0000   1.0000   1.0000   1.0000   1.0000   1.0000   1.0000
     1.0000   1.0000   1.0000   1.0000   1.0000   1.0000   1.0000   1.0000
     1.0000   1.0000   1.0000   1.0000   1.0000   1.0000   1.0000   1.0000
     1.0000   1.0000   1.0000   1.0000   1.0000   1.0000   1.0000   1.0000
     1.0000   1.0000   1.0000   1.0000   1.0000   1.0000   1.0000   1.0000
     1.0000   1.0000   1.0000   1.0000   1.0000   1.0000   1.0000   1.0000
     1.0000   1.0000   1.0000   1.0000   1.0000   1.0000   1.0000   1.0000
     1.0000   1.0000   1.0000   1.0000   1.0000   1.0000   1.0000   1.0000
     1.0000   1.0000   1.0000   1.0000   1.0000   1.0000   1.0000   1.0000
     1.0000   1.0000   1.0000   1.0000   1.0000   1.0000   1.0000   1.0000
     1.0000   1.0000   1.0000   1.0000   1.0000   1.0000   1.0000   1.0000
     0.0000   0.0000   0.0000   0.0000   0.0000   0.0000   0.0000   0.0000
     0.0000   0.0000   0.0000   0.0000   0.0000   0.0000   0.0000   0.0000
     0.0000   0.0000   0.0000   0.0000

          k = 0.0000 0.3849 0.0000 (161877 PWs)   bands (ev):

   -56.1915 -32.8264 -32.4943 -32.2815 -20.5656 -20.4335 -20.2590 -20.1382
   -19.9655 -19.8993 -19.7259 -19.6663 -19.5122 -19.3861 -19.3492 -19.2375
   -19.0278 -19.0073 -18.9703 -18.8374 -18.6340 -18.6045 -18.5855 -18.5289
   -18.2862 -18.2500 -18.2383 -18.2296 -18.1047 -17.9405 -17.8824 -17.8768
   -17.8479 -17.8156 -17.6704 -17.6496 -17.6045 -17.5668 -17.5239 -17.4886
   -17.4247 -17.3581 -17.3125 -17.2486 -17.1804 -17.0428 -16.9873 -16.9457
   -16.7248 -16.5442 -15.9639 -15.7837 -11.7170 -11.6919 -11.6625 -11.4736
   -11.4544 -11.3305 -11.2934 -11.2788 -11.2707 -11.0024 -10.9874 -10.9271
   -10.9047 -10.7887 -10.7280 -10.7132 -10.6798 -10.5716 -10.5284 -10.4037
   -10.3631 -10.1981 -10.0875  -9.9980  -9.7390  -9.6938  -9.6603  -9.6317
    -9.5345  -9.4769  -9.3760  -9.1898  -9.1617  -9.1372  -9.0687  -8.9896
    -8.8657  -8.7006  -8.6372  -8.5355  -8.4817  -8.3504  -8.2717  -8.1814
    -8.1490  -8.1314  -8.0618  -8.0469  -8.0189  -7.9706  -7.9286  -7.7999
    -7.7513  -7.7154  -7.6545  -7.6480  -7.5975  -7.5853  -7.5475  -7.5126
    -7.4445  -7.3693  -7.3105  -7.2855  -7.2352  -7.2180  -7.1507  -7.0569
    -7.0420  -7.0115  -6.9928  -6.9873  -6.9406  -6.8841  -6.8621  -6.8250
    -6.7954  -6.7711  -6.7422  -6.5694  -6.5539  -6.5468  -6.4910  -6.4574
    -6.4344  -6.3866  -6.2945  -6.2768  -6.1913  -6.1417  -6.1211  -6.0726
    -6.0497  -5.9602  -5.9449  -5.9025  -5.7722  -5.7199  -5.6484  -5.5473
    -5.5172  -5.5076  -5.4848  -5.4594  -5.4053  -5.2700  -5.2035  -5.1667
    -5.1103  -5.0691  -5.0570  -4.9707  -4.9510  -4.9204  -4.9009  -4.6575
    -4.5898  -4.5597  -4.5316  -4.5023  -4.3963  -4.3631  -4.3521  -4.3148
    -4.1766  -4.1310  -4.0765  -4.0535  -3.9246  -3.8690  -3.8096  -3.7523
    -3.6582  -3.6068  -3.5309  -3.5021  -3.4341  -3.3500  -3.2119  -3.1951
    -3.0220  -2.7917  -2.4950  -2.1834  -1.8377   0.3053   0.7225   0.8998
     1.1853   1.3918   1.5822   1.6795   1.7437   1.7608   1.8199   1.8354
     1.8512   1.8777   1.9010   1.9330   1.9588   1.9762   1.9946   2.0298
     2.1036   2.1395   2.1492   2.1751

     occupation numbers 
     1.0000   1.0000   1.0000   1.0000   1.0000   1.0000   1.0000   1.0000
     1.0000   1.0000   1.0000   1.0000   1.0000   1.0000   1.0000   1.0000
     1.0000   1.0000   1.0000   1.0000   1.0000   1.0000   1.0000   1.0000
     1.0000   1.0000   1.0000   1.0000   1.0000   1.0000   1.0000   1.0000
     1.0000   1.0000   1.0000   1.0000   1.0000   1.0000   1.0000   1.0000
     1.0000   1.0000   1.0000   1.0000   1.0000   1.0000   1.0000   1.0000
     1.0000   1.0000   1.0000   1.0000   1.0000   1.0000   1.0000   1.0000
     1.0000   1.0000   1.0000   1.0000   1.0000   1.0000   1.0000   1.0000
     1.0000   1.0000   1.0000   1.0000   1.0000   1.0000   1.0000   1.0000
     1.0000   1.0000   1.0000   1.0000   1.0000   1.0000   1.0000   1.0000
     1.0000   1.0000   1.0000   1.0000   1.0000   1.0000   1.0000   1.0000
     1.0000   1.0000   1.0000   1.0000   1.0000   1.0000   1.0000   1.0000
     1.0000   1.0000   1.0000   1.0000   1.0000   1.0000   1.0000   1.0000
     1.0000   1.0000   1.0000   1.0000   1.0000   1.0000   1.0000   1.0000
     1.0000   1.0000   1.0000   1.0000   1.0000   1.0000   1.0000   1.0000
     1.0000   1.0000   1.0000   1.0000   1.0000   1.0000   1.0000   1.0000
     1.0000   1.0000   1.0000   1.0000   1.0000   1.0000   1.0000   1.0000
     1.0000   1.0000   1.0000   1.0000   1.0000   1.0000   1.0000   1.0000
     1.0000   1.0000   1.0000   1.0000   1.0000   1.0000   1.0000   1.0000
     1.0000   1.0000   1.0000   1.0000   1.0000   1.0000   1.0000   1.0000
     1.0000   1.0000   1.0000   1.0000   1.0000   1.0000   1.0000   1.0000
     1.0000   1.0000   1.0000   1.0000   1.0000   1.0000   1.0000   1.0000
     1.0000   1.0000   1.0000   1.0000   1.0000   1.0000   1.0000   1.0000
     1.0000   1.0000   1.0000   1.0000   1.0000   1.0000   1.0000   1.0000
     1.0000   1.0000   1.0000   1.0000   1.0000   1.0000   1.0000   1.0000
     0.0000   0.0000   0.0000   0.0000   0.0000   0.0000   0.0000   0.0000
     0.0000   0.0000   0.0000   0.0000   0.0000   0.0000   0.0000   0.0000
     0.0000   0.0000   0.0000   0.0000

          k = 0.3333 0.5774 0.0000 (161838 PWs)   bands (ev):

   -56.1915 -32.8264 -32.4943 -32.2815 -20.5329 -20.4887 -20.2757 -20.0330
   -20.0118 -19.8422 -19.7371 -19.6830 -19.6557 -19.4001 -19.3531 -19.0655
   -19.0274 -19.0128 -18.9856 -18.6719 -18.6515 -18.6367 -18.6262 -18.6098
   -18.4598 -18.2710 -18.2285 -18.2032 -18.0240 -17.9544 -17.8754 -17.8641
   -17.8383 -17.7003 -17.6778 -17.6553 -17.6349 -17.5537 -17.5141 -17.4789
   -17.4417 -17.3901 -17.3278 -17.2420 -17.2195 -17.0456 -16.9696 -16.9389
   -16.7258 -16.5442 -15.9645 -15.7825 -11.7535 -11.7277 -11.7218 -11.3211
   -11.2996 -11.2969 -11.2891 -11.2143 -11.1623 -11.1198 -11.1035 -10.9837
   -10.9485 -10.8812 -10.8091 -10.7936 -10.7134 -10.6715 -10.3491 -10.2202
   -10.1619 -10.1219 -10.0884 -10.0658 -10.0598  -9.9381  -9.7812  -9.6312
    -9.5039  -9.3274  -9.1563  -9.1006  -9.0066  -8.9267  -8.8886  -8.8029
    -8.7898  -8.7761  -8.6693  -8.6343  -8.6255  -8.5434  -8.4576  -8.3978
    -8.3699  -8.3400  -8.1846  -8.0936  -8.0785  -8.0532  -7.8855  -7.7904
    -7.6156  -7.5439  -7.5366  -7.4961  -7.4463  -7.4250  -7.3980  -7.3930
    -7.3765  -7.3241  -7.2792  -7.2720  -7.2526  -7.1888  -7.1331  -7.0693
    -7.0548  -7.0474  -7.0321  -7.0193  -6.9878  -6.9647  -6.9573  -6.8814
    -6.7612  -6.7470  -6.7387  -6.6931  -6.6686  -6.6256  -6.5904  -6.5192
    -6.4196  -6.3267  -6.2971  -6.2879  -6.2056  -6.0567  -6.0555  -6.0359
    -6.0252  -5.9916  -5.8919  -5.7920  -5.7507  -5.6939  -5.6601  -5.5690
    -5.5448  -5.5052  -5.5025  -5.4767  -5.4156  -5.3992  -5.3340  -5.1553
    -5.0568  -5.0461  -5.0149  -4.9960  -4.9468  -4.8677  -4.7907  -4.7514
    -4.7358  -4.5758  -4.4879  -4.4282  -4.3794  -4.3634  -4.3417  -4.3017
    -4.1016  -4.0676  -4.0444  -3.9373  -3.8980  -3.8747  -3.8188  -3.7768
    -3.7568  -3.6702  -3.5920  -3.5614  -3.4530  -3.3840  -3.1911  -3.1512
    -3.0195  -2.7753  -2.4980  -2.1764  -1.8364   0.3049   0.7238   0.9071
     1.2552   1.2678   1.5093   1.7202   1.7410   1.7650   1.7787   1.8304
     1.8548   1.8897   1.9060   1.9464   1.9708   2.0197   2.0473   2.0658
     2.1468   2.1544   2.1653   2.1854

     occupation numbers 
     1.0000   1.0000   1.0000   1.0000   1.0000   1.0000   1.0000   1.0000
     1.0000   1.0000   1.0000   1.0000   1.0000   1.0000   1.0000   1.0000
     1.0000   1.0000   1.0000   1.0000   1.0000   1.0000   1.0000   1.0000
     1.0000   1.0000   1.0000   1.0000   1.0000   1.0000   1.0000   1.0000
     1.0000   1.0000   1.0000   1.0000   1.0000   1.0000   1.0000   1.0000
     1.0000   1.0000   1.0000   1.0000   1.0000   1.0000   1.0000   1.0000
     1.0000   1.0000   1.0000   1.0000   1.0000   1.0000   1.0000   1.0000
     1.0000   1.0000   1.0000   1.0000   1.0000   1.0000   1.0000   1.0000
     1.0000   1.0000   1.0000   1.0000   1.0000   1.0000   1.0000   1.0000
     1.0000   1.0000   1.0000   1.0000   1.0000   1.0000   1.0000   1.0000
     1.0000   1.0000   1.0000   1.0000   1.0000   1.0000   1.0000   1.0000
     1.0000   1.0000   1.0000   1.0000   1.0000   1.0000   1.0000   1.0000
     1.0000   1.0000   1.0000   1.0000   1.0000   1.0000   1.0000   1.0000
     1.0000   1.0000   1.0000   1.0000   1.0000   1.0000   1.0000   1.0000
     1.0000   1.0000   1.0000   1.0000   1.0000   1.0000   1.0000   1.0000
     1.0000   1.0000   1.0000   1.0000   1.0000   1.0000   1.0000   1.0000
     1.0000   1.0000   1.0000   1.0000   1.0000   1.0000   1.0000   1.0000
     1.0000   1.0000   1.0000   1.0000   1.0000   1.0000   1.0000   1.0000
     1.0000   1.0000   1.0000   1.0000   1.0000   1.0000   1.0000   1.0000
     1.0000   1.0000   1.0000   1.0000   1.0000   1.0000   1.0000   1.0000
     1.0000   1.0000   1.0000   1.0000   1.0000   1.0000   1.0000   1.0000
     1.0000   1.0000   1.0000   1.0000   1.0000   1.0000   1.0000   1.0000
     1.0000   1.0000   1.0000   1.0000   1.0000   1.0000   1.0000   1.0000
     1.0000   1.0000   1.0000   1.0000   1.0000   1.0000   1.0000   1.0000
     1.0000   1.0000   1.0000   1.0000   1.0000   1.0000   1.0000   1.0000
     0.0000   0.0000   0.0000   0.0000   0.0000   0.0000   0.0000   0.0000
     0.0000   0.0000   0.0000   0.0000   0.0000   0.0000   0.0000   0.0000
     0.0000   0.0000   0.0000   0.0000

          k =-0.3333 0.1925 0.0000 (161877 PWs)   bands (ev):

   -56.1915 -32.8264 -32.4943 -32.2815 -20.5613 -20.4460 -20.2506 -20.1299
   -19.9493 -19.9234 -19.7179 -19.6928 -19.5207 -19.3595 -19.3209 -19.2465
   -19.0416 -19.0102 -18.9885 -18.8013 -18.6395 -18.6261 -18.5722 -18.5624
   -18.2690 -18.2640 -18.2150 -18.2093 -18.1215 -17.9178 -17.9054 -17.8615
   -17.8514 -17.8162 -17.6789 -17.6619 -17.6258 -17.5555 -17.4931 -17.4856
   -17.4171 -17.3763 -17.3307 -17.2300 -17.2038 -17.0558 -16.9517 -16.9402
   -16.7331 -16.5474 -15.9648 -15.7826 -11.7436 -11.6670 -11.6657 -11.4496
   -11.4410 -11.3432 -11.2915 -11.2865 -11.2826 -11.0079 -10.9991 -10.9306
   -10.9080 -10.7451 -10.7381 -10.6994 -10.6966 -10.5864 -10.5183 -10.4041
   -10.3310 -10.2614 -10.0758  -9.9937  -9.7599  -9.7009  -9.6382  -9.6324
    -9.5189  -9.4125  -9.3970  -9.2188  -9.1728  -9.1221  -9.1140  -8.9124
    -8.9111  -8.6606  -8.6440  -8.5977  -8.4618  -8.3351  -8.3219  -8.1449
    -8.1398  -8.1384  -8.0512  -8.0329  -7.9831  -7.9737  -7.9541  -7.8023
    -7.7856  -7.7383  -7.6555  -7.6208  -7.6045  -7.5789  -7.5481  -7.5437
    -7.3976  -7.3576  -7.3338  -7.3019  -7.2340  -7.1735  -7.1628  -7.0946
    -7.0381  -7.0158  -6.9960  -6.9593  -6.9372  -6.8934  -6.8856  -6.8354
    -6.8156  -6.7545  -6.7111  -6.5455  -6.5372  -6.5193  -6.4916  -6.4777
    -6.4615  -6.3668  -6.3022  -6.2934  -6.1692  -6.1560  -6.1011  -6.0802
    -6.0573  -6.0066  -5.9052  -5.8459  -5.7332  -5.7126  -5.6963  -5.5758
    -5.5366  -5.5156  -5.5153  -5.4899  -5.4305  -5.3167  -5.2159  -5.1396
    -5.1207  -5.1146  -5.0270  -4.9758  -4.9078  -4.8949  -4.7210  -4.6905
    -4.5785  -4.5662  -4.5454  -4.4784  -4.4148  -4.3753  -4.3599  -4.3377
    -4.2257  -4.0774  -4.0745  -4.0586  -3.9390  -3.8991  -3.7777  -3.7708
    -3.6820  -3.6300  -3.5310  -3.4969  -3.4051  -3.3082  -3.2559  -3.1079
    -3.1030  -2.7917  -2.4879  -2.1826  -1.8382   0.3054   0.7229   0.8996
     1.1887   1.3909   1.5702   1.6816   1.7640   1.7661   1.8139   1.8225
     1.8363   1.8701   1.9060   1.9253   1.9624   1.9816   2.0155   2.0788
     2.0994   2.1383   2.1512   2.1529

     occupation numbers 
     1.0000   1.0000   1.0000   1.0000   1.0000   1.0000   1.0000   1.0000
     1.0000   1.0000   1.0000   1.0000   1.0000   1.0000   1.0000   1.0000
     1.0000   1.0000   1.0000   1.0000   1.0000   1.0000   1.0000   1.0000
     1.0000   1.0000   1.0000   1.0000   1.0000   1.0000   1.0000   1.0000
     1.0000   1.0000   1.0000   1.0000   1.0000   1.0000   1.0000   1.0000
     1.0000   1.0000   1.0000   1.0000   1.0000   1.0000   1.0000   1.0000
     1.0000   1.0000   1.0000   1.0000   1.0000   1.0000   1.0000   1.0000
     1.0000   1.0000   1.0000   1.0000   1.0000   1.0000   1.0000   1.0000
     1.0000   1.0000   1.0000   1.0000   1.0000   1.0000   1.0000   1.0000
     1.0000   1.0000   1.0000   1.0000   1.0000   1.0000   1.0000   1.0000
     1.0000   1.0000   1.0000   1.0000   1.0000   1.0000   1.0000   1.0000
     1.0000   1.0000   1.0000   1.0000   1.0000   1.0000   1.0000   1.0000
     1.0000   1.0000   1.0000   1.0000   1.0000   1.0000   1.0000   1.0000
     1.0000   1.0000   1.0000   1.0000   1.0000   1.0000   1.0000   1.0000
     1.0000   1.0000   1.0000   1.0000   1.0000   1.0000   1.0000   1.0000
     1.0000   1.0000   1.0000   1.0000   1.0000   1.0000   1.0000   1.0000
     1.0000   1.0000   1.0000   1.0000   1.0000   1.0000   1.0000   1.0000
     1.0000   1.0000   1.0000   1.0000   1.0000   1.0000   1.0000   1.0000
     1.0000   1.0000   1.0000   1.0000   1.0000   1.0000   1.0000   1.0000
     1.0000   1.0000   1.0000   1.0000   1.0000   1.0000   1.0000   1.0000
     1.0000   1.0000   1.0000   1.0000   1.0000   1.0000   1.0000   1.0000
     1.0000   1.0000   1.0000   1.0000   1.0000   1.0000   1.0000   1.0000
     1.0000   1.0000   1.0000   1.0000   1.0000   1.0000   1.0000   1.0000
     1.0000   1.0000   1.0000   1.0000   1.0000   1.0000   1.0000   1.0000
     1.0000   1.0000   1.0000   1.0000   1.0000   1.0000   1.0000   1.0000
     0.0000   0.0000   0.0000   0.0000   0.0000   0.0000   0.0000   0.0000
     0.0000   0.0000   0.0000   0.0000   0.0000   0.0000   0.0000   0.0000
     0.0000   0.0000   0.0000   0.0000

          k = 0.3333 0.1925 0.0000 (161877 PWs)   bands (ev):

   -56.1915 -32.8264 -32.4943 -32.2815 -20.5655 -20.4339 -20.2586 -20.1379
   -19.9655 -19.8996 -19.7258 -19.6671 -19.5123 -19.3853 -19.3479 -19.2382
   -19.0286 -19.0077 -18.9698 -18.8365 -18.6349 -18.6046 -18.5860 -18.5290
   -18.2859 -18.2500 -18.2381 -18.2290 -18.1048 -17.9396 -17.8826 -17.8763
   -17.8480 -17.8162 -17.6713 -17.6498 -17.6044 -17.5672 -17.5229 -17.4897
   -17.4249 -17.3573 -17.3124 -17.2486 -17.1797 -17.0415 -16.9892 -16.9462
   -16.7243 -16.5442 -15.9639 -15.7837 -11.7174 -11.6923 -11.6623 -11.4726
   -11.4536 -11.3306 -11.2939 -11.2790 -11.2708 -11.0028 -10.9879 -10.9273
   -10.9050 -10.7885 -10.7283 -10.7133 -10.6792 -10.5718 -10.5281 -10.4032
   -10.3637 -10.1974 -10.0868  -9.9980  -9.7400  -9.6944  -9.6600  -9.6305
    -9.5352  -9.4767  -9.3763  -9.1903  -9.1620  -9.1369  -9.0686  -8.9899
    -8.8645  -8.7007  -8.6377  -8.5365  -8.4814  -8.3507  -8.2717  -8.1819
    -8.1475  -8.1325  -8.0621  -8.0458  -8.0183  -7.9712  -7.9288  -7.7997
    -7.7512  -7.7158  -7.6543  -7.6475  -7.5970  -7.5850  -7.5478  -7.5126
    -7.4442  -7.3695  -7.3108  -7.2849  -7.2355  -7.2179  -7.1516  -7.0567
    -7.0417  -7.0121  -6.9924  -6.9869  -6.9409  -6.8844  -6.8622  -6.8255
    -6.7953  -6.7721  -6.7424  -6.5701  -6.5533  -6.5457  -6.4907  -6.4578
    -6.4345  -6.3856  -6.2946  -6.2773  -6.1903  -6.1408  -6.1215  -6.0733
    -6.0491  -5.9611  -5.9439  -5.9037  -5.7716  -5.7197  -5.6495  -5.5478
    -5.5169  -5.5088  -5.4841  -5.4590  -5.4058  -5.2714  -5.2033  -5.1653
    -5.1124  -5.0666  -5.0567  -4.9683  -4.9533  -4.9185  -4.9013  -4.6583
    -4.5881  -4.5612  -4.5320  -4.5010  -4.3985  -4.3640  -4.3524  -4.3148
    -4.1758  -4.1294  -4.0774  -4.0535  -3.9256  -3.8690  -3.8091  -3.7511
    -3.6606  -3.6073  -3.5287  -3.5009  -3.4359  -3.3497  -3.2133  -3.1946
    -3.0208  -2.7918  -2.4952  -2.1835  -1.8376   0.3053   0.7225   0.8997
     1.1855   1.3917   1.5817   1.6798   1.7442   1.7603   1.8197   1.8360
     1.8509   1.8790   1.8995   1.9330   1.9596   1.9764   1.9939   2.0299
     2.1037   2.1393   2.1488   2.1753

     occupation numbers 
     1.0000   1.0000   1.0000   1.0000   1.0000   1.0000   1.0000   1.0000
     1.0000   1.0000   1.0000   1.0000   1.0000   1.0000   1.0000   1.0000
     1.0000   1.0000   1.0000   1.0000   1.0000   1.0000   1.0000   1.0000
     1.0000   1.0000   1.0000   1.0000   1.0000   1.0000   1.0000   1.0000
     1.0000   1.0000   1.0000   1.0000   1.0000   1.0000   1.0000   1.0000
     1.0000   1.0000   1.0000   1.0000   1.0000   1.0000   1.0000   1.0000
     1.0000   1.0000   1.0000   1.0000   1.0000   1.0000   1.0000   1.0000
     1.0000   1.0000   1.0000   1.0000   1.0000   1.0000   1.0000   1.0000
     1.0000   1.0000   1.0000   1.0000   1.0000   1.0000   1.0000   1.0000
     1.0000   1.0000   1.0000   1.0000   1.0000   1.0000   1.0000   1.0000
     1.0000   1.0000   1.0000   1.0000   1.0000   1.0000   1.0000   1.0000
     1.0000   1.0000   1.0000   1.0000   1.0000   1.0000   1.0000   1.0000
     1.0000   1.0000   1.0000   1.0000   1.0000   1.0000   1.0000   1.0000
     1.0000   1.0000   1.0000   1.0000   1.0000   1.0000   1.0000   1.0000
     1.0000   1.0000   1.0000   1.0000   1.0000   1.0000   1.0000   1.0000
     1.0000   1.0000   1.0000   1.0000   1.0000   1.0000   1.0000   1.0000
     1.0000   1.0000   1.0000   1.0000   1.0000   1.0000   1.0000   1.0000
     1.0000   1.0000   1.0000   1.0000   1.0000   1.0000   1.0000   1.0000
     1.0000   1.0000   1.0000   1.0000   1.0000   1.0000   1.0000   1.0000
     1.0000   1.0000   1.0000   1.0000   1.0000   1.0000   1.0000   1.0000
     1.0000   1.0000   1.0000   1.0000   1.0000   1.0000   1.0000   1.0000
     1.0000   1.0000   1.0000   1.0000   1.0000   1.0000   1.0000   1.0000
     1.0000   1.0000   1.0000   1.0000   1.0000   1.0000   1.0000   1.0000
     1.0000   1.0000   1.0000   1.0000   1.0000   1.0000   1.0000   1.0000
     1.0000   1.0000   1.0000   1.0000   1.0000   1.0000   1.0000   1.0000
     0.0000   0.0000   0.0000   0.0000   0.0000   0.0000   0.0000   0.0000
     0.0000   0.0000   0.0000   0.0000   0.0000   0.0000   0.0000   0.0000
     0.0000   0.0000   0.0000   0.0000

 ------ SPIN DOWN ----------


          k = 0.0000 0.0000 0.0000 (161811 PWs)   bands (ev):

   -55.7500 -32.2720 -32.1381 -31.6304 -20.5918 -20.3284 -20.2474 -20.2289
   -20.0183 -19.9772 -19.6594 -19.4030 -19.3929 -19.3924 -19.3778 -19.3570
   -19.2661 -19.0131 -18.9362 -18.9161 -18.7429 -18.6627 -18.3028 -18.2441
   -18.2417 -18.2301 -18.2271 -18.2145 -18.2072 -17.9615 -17.9524 -17.9110
   -17.9008 -17.8986 -17.7962 -17.6555 -17.6026 -17.5922 -17.4654 -17.4508
   -17.3459 -17.3345 -17.3048 -17.2314 -17.1758 -17.0398 -17.0133 -16.9300
   -16.7236 -16.5430 -15.9673 -15.7913 -11.6314 -11.6031 -11.5951 -11.5072
   -11.4891 -11.4780 -11.3963 -11.3814 -11.3773 -10.9437 -10.9118 -10.9012
   -10.8953 -10.8885 -10.7509 -10.6681 -10.5661 -10.5598 -10.1638 -10.1533
   -10.1448 -10.1243 -10.1019 -10.0453  -9.9812  -9.8873  -9.8303  -9.6962
    -9.5681  -9.5587  -9.4975  -9.4634  -9.2038  -9.1990  -8.9788  -8.9240
    -8.7222  -8.6194  -8.5986  -8.5446  -8.3825  -8.2339  -8.1833  -8.0900
    -8.0846  -8.0403  -8.0380  -7.9721  -7.9338  -7.8057  -7.7222  -7.7136
    -7.7072  -7.6946  -7.6768  -7.6693  -7.6567  -7.6503  -7.5406  -7.4876
    -7.4738  -7.4659  -7.4453  -7.4328  -7.4119  -7.3871  -7.3499  -7.3417
    -7.1750  -7.1173  -7.0334  -7.0170  -6.9904  -6.9827  -6.9280  -6.5930
    -6.5831  -6.5774  -6.5637  -6.5574  -6.4587  -6.4555  -6.3918  -6.3427
    -6.3213  -6.3143  -6.2878  -6.2784  -6.2018  -6.1758  -6.0866  -6.0203
    -6.0045  -5.9077  -5.8718  -5.8485  -5.8378  -5.7960  -5.7605  -5.7370
    -5.6782  -5.6738  -5.5571  -5.5513  -5.3142  -5.2319  -5.0862  -5.0006
    -4.9355  -4.9241  -4.9217  -4.9195  -4.9108  -4.9009  -4.8942  -4.6485
    -4.6278  -4.5960  -4.5847  -4.5761  -4.5040  -4.4693  -4.3947  -4.3676
    -4.2704  -4.1414  -4.0563  -4.0528  -4.0082  -3.9269  -3.7503  -3.5838
    -3.5594  -3.5364  -3.4491  -3.4104  -3.3897  -3.2995  -3.2569  -3.1394
    -3.0906  -2.8073  -2.4574  -2.1838  -1.5833   0.5532   1.2003   1.5052
     1.7143   1.8006   1.8098   1.8103   1.8250   1.8268   1.8519   1.8604
     1.8752   1.9539   1.9653   2.0113   2.0370   2.0689   2.0802   2.1449
     2.1784   2.1860   2.2783   2.3583

     occupation numbers 
     1.0000   1.0000   1.0000   1.0000   1.0000   1.0000   1.0000   1.0000
     1.0000   1.0000   1.0000   1.0000   1.0000   1.0000   1.0000   1.0000
     1.0000   1.0000   1.0000   1.0000   1.0000   1.0000   1.0000   1.0000
     1.0000   1.0000   1.0000   1.0000   1.0000   1.0000   1.0000   1.0000
     1.0000   1.0000   1.0000   1.0000   1.0000   1.0000   1.0000   1.0000
     1.0000   1.0000   1.0000   1.0000   1.0000   1.0000   1.0000   1.0000
     1.0000   1.0000   1.0000   1.0000   1.0000   1.0000   1.0000   1.0000
     1.0000   1.0000   1.0000   1.0000   1.0000   1.0000   1.0000   1.0000
     1.0000   1.0000   1.0000   1.0000   1.0000   1.0000   1.0000   1.0000
     1.0000   1.0000   1.0000   1.0000   1.0000   1.0000   1.0000   1.0000
     1.0000   1.0000   1.0000   1.0000   1.0000   1.0000   1.0000   1.0000
     1.0000   1.0000   1.0000   1.0000   1.0000   1.0000   1.0000   1.0000
     1.0000   1.0000   1.0000   1.0000   1.0000   1.0000   1.0000   1.0000
     1.0000   1.0000   1.0000   1.0000   1.0000   1.0000   1.0000   1.0000
     1.0000   1.0000   1.0000   1.0000   1.0000   1.0000   1.0000   1.0000
     1.0000   1.0000   1.0000   1.0000   1.0000   1.0000   1.0000   1.0000
     1.0000   1.0000   1.0000   1.0000   1.0000   1.0000   1.0000   1.0000
     1.0000   1.0000   1.0000   1.0000   1.0000   1.0000   1.0000   1.0000
     1.0000   1.0000   1.0000   1.0000   1.0000   1.0000   1.0000   1.0000
     1.0000   1.0000   1.0000   1.0000   1.0000   1.0000   1.0000   1.0000
     1.0000   1.0000   1.0000   1.0000   1.0000   1.0000   1.0000   1.0000
     1.0000   1.0000   1.0000   1.0000   1.0000   1.0000   1.0000   1.0000
     1.0000   1.0000   1.0000   1.0000   1.0000   1.0000   1.0000   1.0000
     1.0000   1.0000   1.0000   1.0000   1.0000   1.0000   1.0000   1.0000
     1.0000   1.0000   1.0000   1.0000   1.0000   1.0000   0.0000   0.0000
     0.0000   0.0000   0.0000   0.0000   0.0000   0.0000   0.0000   0.0000
     0.0000   0.0000   0.0000   0.0000   0.0000   0.0000   0.0000   0.0000
     0.0000   0.0000   0.0000   0.0000

          k = 0.0000 0.3849 0.0000 (161877 PWs)   bands (ev):

   -55.7500 -32.2720 -32.1381 -31.6304 -20.5651 -20.4330 -20.2585 -20.1374
   -19.9646 -19.8982 -19.7250 -19.6654 -19.5104 -19.3856 -19.3476 -19.2357
   -19.0272 -19.0059 -18.9686 -18.8345 -18.6336 -18.6039 -18.5834 -18.5265
   -18.2841 -18.2489 -18.2375 -18.2287 -18.1015 -17.9397 -17.8817 -17.8757
   -17.8476 -17.8141 -17.6703 -17.6489 -17.6030 -17.5656 -17.5217 -17.4865
   -17.4238 -17.3579 -17.3118 -17.2458 -17.1796 -17.0409 -16.9832 -16.9423
   -16.7196 -16.5404 -15.9677 -15.7902 -11.7154 -11.6905 -11.6612 -11.4715
   -11.4525 -11.3289 -11.2914 -11.2770 -11.2690 -11.0009 -10.9857 -10.9261
   -10.9030 -10.7825 -10.7250 -10.7106 -10.6780 -10.5697 -10.5258 -10.3991
   -10.3562 -10.1947 -10.0825  -9.9920  -9.7324  -9.6900  -9.6574  -9.6255
    -9.5300  -9.4704  -9.3723  -9.1817  -9.1591  -9.1343  -9.0635  -8.9822
    -8.8621  -8.6917  -8.6356  -8.5275  -8.4716  -8.3463  -8.2688  -8.1764
    -8.1459  -8.1295  -8.0562  -8.0451  -8.0143  -7.9679  -7.9237  -7.7953
    -7.7479  -7.7127  -7.6516  -7.6422  -7.5920  -7.5784  -7.5447  -7.5097
    -7.4318  -7.3642  -7.3050  -7.2831  -7.2335  -7.2156  -7.1475  -7.0543
    -7.0370  -7.0092  -6.9911  -6.9828  -6.9348  -6.8804  -6.8564  -6.8158
    -6.7928  -6.7659  -6.7370  -6.5659  -6.5507  -6.5410  -6.4869  -6.4481
    -6.4316  -6.3843  -6.2908  -6.2735  -6.1866  -6.1365  -6.1109  -6.0686
    -6.0421  -5.9574  -5.9286  -5.8998  -5.7674  -5.7176  -5.6434  -5.5365
    -5.5063  -5.5040  -5.4800  -5.4540  -5.4021  -5.2653  -5.2013  -5.1494
    -5.1007  -5.0634  -5.0510  -4.9609  -4.9460  -4.9175  -4.8893  -4.6519
    -4.5834  -4.5466  -4.5252  -4.4943  -4.3901  -4.3609  -4.3481  -4.3062
    -4.1608  -4.1059  -4.0711  -4.0478  -3.9201  -3.8595  -3.8066  -3.7391
    -3.6457  -3.5987  -3.5187  -3.4785  -3.4138  -3.3387  -3.1955  -3.1708
    -3.0040  -2.7740  -2.4714  -2.1730  -1.5809   0.5519   1.2612   1.4740
     1.5042   1.7335   1.7732   1.7832   1.8288   1.8349   1.8600   1.9066
     1.9532   1.9896   2.0433   2.1029   2.1236   2.1470   2.1629   2.1986
     2.2049   2.2244   2.2534   2.3019

     occupation numbers 
     1.0000   1.0000   1.0000   1.0000   1.0000   1.0000   1.0000   1.0000
     1.0000   1.0000   1.0000   1.0000   1.0000   1.0000   1.0000   1.0000
     1.0000   1.0000   1.0000   1.0000   1.0000   1.0000   1.0000   1.0000
     1.0000   1.0000   1.0000   1.0000   1.0000   1.0000   1.0000   1.0000
     1.0000   1.0000   1.0000   1.0000   1.0000   1.0000   1.0000   1.0000
     1.0000   1.0000   1.0000   1.0000   1.0000   1.0000   1.0000   1.0000
     1.0000   1.0000   1.0000   1.0000   1.0000   1.0000   1.0000   1.0000
     1.0000   1.0000   1.0000   1.0000   1.0000   1.0000   1.0000   1.0000
     1.0000   1.0000   1.0000   1.0000   1.0000   1.0000   1.0000   1.0000
     1.0000   1.0000   1.0000   1.0000   1.0000   1.0000   1.0000   1.0000
     1.0000   1.0000   1.0000   1.0000   1.0000   1.0000   1.0000   1.0000
     1.0000   1.0000   1.0000   1.0000   1.0000   1.0000   1.0000   1.0000
     1.0000   1.0000   1.0000   1.0000   1.0000   1.0000   1.0000   1.0000
     1.0000   1.0000   1.0000   1.0000   1.0000   1.0000   1.0000   1.0000
     1.0000   1.0000   1.0000   1.0000   1.0000   1.0000   1.0000   1.0000
     1.0000   1.0000   1.0000   1.0000   1.0000   1.0000   1.0000   1.0000
     1.0000   1.0000   1.0000   1.0000   1.0000   1.0000   1.0000   1.0000
     1.0000   1.0000   1.0000   1.0000   1.0000   1.0000   1.0000   1.0000
     1.0000   1.0000   1.0000   1.0000   1.0000   1.0000   1.0000   1.0000
     1.0000   1.0000   1.0000   1.0000   1.0000   1.0000   1.0000   1.0000
     1.0000   1.0000   1.0000   1.0000   1.0000   1.0000   1.0000   1.0000
     1.0000   1.0000   1.0000   1.0000   1.0000   1.0000   1.0000   1.0000
     1.0000   1.0000   1.0000   1.0000   1.0000   1.0000   1.0000   1.0000
     1.0000   1.0000   1.0000   1.0000   1.0000   1.0000   1.0000   1.0000
     1.0000   1.0000   1.0000   1.0000   1.0000   1.0000   0.0000   0.0000
     0.0000   0.0000   0.0000   0.0000   0.0000   0.0000   0.0000   0.0000
     0.0000   0.0000   0.0000   0.0000   0.0000   0.0000   0.0000   0.0000
     0.0000   0.0000   0.0000   0.0000

          k = 0.3333 0.5774 0.0000 (161838 PWs)   bands (ev):

   -55.7500 -32.2720 -32.1381 -31.6304 -20.5324 -20.4882 -20.2751 -20.0323
   -20.0110 -19.8410 -19.7365 -19.6821 -19.6550 -19.3978 -19.3511 -19.0624
   -19.0267 -19.0120 -18.9851 -18.6696 -18.6497 -18.6361 -18.6253 -18.6093
   -18.4570 -18.2699 -18.2270 -18.2021 -18.0203 -17.9521 -17.8752 -17.8638
   -17.8382 -17.6977 -17.6771 -17.6550 -17.6345 -17.5532 -17.5123 -17.4784
   -17.4407 -17.3892 -17.3269 -17.2406 -17.2163 -17.0434 -16.9646 -16.9372
   -16.7203 -16.5406 -15.9683 -15.7891 -11.7518 -11.7260 -11.7203 -11.3188
   -11.2984 -11.2954 -11.2877 -11.2127 -11.1606 -11.1188 -11.1023 -10.9814
   -10.9468 -10.8794 -10.8045 -10.7876 -10.7107 -10.6687 -10.3468 -10.2131
   -10.1569 -10.1185 -10.0862 -10.0629 -10.0552  -9.9315  -9.7760  -9.6222
    -9.4959  -9.3239  -9.1550  -9.0881  -9.0023  -8.9231  -8.8863  -8.8008
    -8.7850  -8.7730  -8.6620  -8.6302  -8.6227  -8.5411  -8.4548  -8.3917
    -8.3660  -8.3319  -8.1787  -8.0902  -8.0717  -8.0506  -7.8685  -7.7858
    -7.6081  -7.5434  -7.5360  -7.4953  -7.4416  -7.4208  -7.3952  -7.3907
    -7.3748  -7.3168  -7.2733  -7.2687  -7.2451  -7.1861  -7.1317  -7.0680
    -7.0501  -7.0441  -7.0284  -7.0143  -6.9832  -6.9620  -6.9541  -6.8731
    -6.7594  -6.7449  -6.7374  -6.6829  -6.6607  -6.6180  -6.5865  -6.5146
    -6.4180  -6.3213  -6.2937  -6.2700  -6.1974  -6.0530  -6.0518  -6.0320
    -6.0221  -5.9892  -5.8876  -5.7847  -5.7490  -5.6817  -5.6478  -5.5663
    -5.5378  -5.5017  -5.4973  -5.4753  -5.4018  -5.3940  -5.3308  -5.1515
    -5.0536  -5.0407  -5.0070  -4.9900  -4.9405  -4.8526  -4.7786  -4.7492
    -4.7161  -4.5685  -4.4619  -4.4228  -4.3766  -4.3615  -4.3374  -4.2865
    -4.0977  -4.0643  -4.0417  -3.9322  -3.8941  -3.8635  -3.8104  -3.7666
    -3.7451  -3.6600  -3.5838  -3.5373  -3.4208  -3.3618  -3.1846  -3.1251
    -3.0009  -2.7577  -2.4750  -2.1664  -1.5799   0.5514   1.3563   1.3627
     1.4962   1.6301   1.7520   1.7611   1.7908   1.8390   1.8605   1.8834
     2.0579   2.0896   2.1227   2.1495   2.1667   2.1735   2.1899   2.2036
     2.2853   2.2904   2.2950   2.2996

     occupation numbers 
     1.0000   1.0000   1.0000   1.0000   1.0000   1.0000   1.0000   1.0000
     1.0000   1.0000   1.0000   1.0000   1.0000   1.0000   1.0000   1.0000
     1.0000   1.0000   1.0000   1.0000   1.0000   1.0000   1.0000   1.0000
     1.0000   1.0000   1.0000   1.0000   1.0000   1.0000   1.0000   1.0000
     1.0000   1.0000   1.0000   1.0000   1.0000   1.0000   1.0000   1.0000
     1.0000   1.0000   1.0000   1.0000   1.0000   1.0000   1.0000   1.0000
     1.0000   1.0000   1.0000   1.0000   1.0000   1.0000   1.0000   1.0000
     1.0000   1.0000   1.0000   1.0000   1.0000   1.0000   1.0000   1.0000
     1.0000   1.0000   1.0000   1.0000   1.0000   1.0000   1.0000   1.0000
     1.0000   1.0000   1.0000   1.0000   1.0000   1.0000   1.0000   1.0000
     1.0000   1.0000   1.0000   1.0000   1.0000   1.0000   1.0000   1.0000
     1.0000   1.0000   1.0000   1.0000   1.0000   1.0000   1.0000   1.0000
     1.0000   1.0000   1.0000   1.0000   1.0000   1.0000   1.0000   1.0000
     1.0000   1.0000   1.0000   1.0000   1.0000   1.0000   1.0000   1.0000
     1.0000   1.0000   1.0000   1.0000   1.0000   1.0000   1.0000   1.0000
     1.0000   1.0000   1.0000   1.0000   1.0000   1.0000   1.0000   1.0000
     1.0000   1.0000   1.0000   1.0000   1.0000   1.0000   1.0000   1.0000
     1.0000   1.0000   1.0000   1.0000   1.0000   1.0000   1.0000   1.0000
     1.0000   1.0000   1.0000   1.0000   1.0000   1.0000   1.0000   1.0000
     1.0000   1.0000   1.0000   1.0000   1.0000   1.0000   1.0000   1.0000
     1.0000   1.0000   1.0000   1.0000   1.0000   1.0000   1.0000   1.0000
     1.0000   1.0000   1.0000   1.0000   1.0000   1.0000   1.0000   1.0000
     1.0000   1.0000   1.0000   1.0000   1.0000   1.0000   1.0000   1.0000
     1.0000   1.0000   1.0000   1.0000   1.0000   1.0000   1.0000   1.0000
     1.0000   1.0000   1.0000   1.0000   1.0000   1.0000   0.0000   0.0000
     0.0000   0.0000   0.0000   0.0000   0.0000   0.0000   0.0000   0.0000
     0.0000   0.0000   0.0000   0.0000   0.0000   0.0000   0.0000   0.0000
     0.0000   0.0000   0.0000   0.0000

          k =-0.3333 0.1925 0.0000 (161877 PWs)   bands (ev):

   -55.7500 -32.2720 -32.1381 -31.6304 -20.5607 -20.4454 -20.2502 -20.1292
   -19.9484 -19.9224 -19.7171 -19.6918 -19.5190 -19.3591 -19.3192 -19.2444
   -19.0408 -19.0093 -18.9866 -18.7984 -18.6392 -18.6255 -18.5696 -18.5606
   -18.2669 -18.2627 -18.2143 -18.2090 -18.1185 -17.9174 -17.9041 -17.8614
   -17.8503 -17.8138 -17.6786 -17.6612 -17.6243 -17.5548 -17.4910 -17.4850
   -17.4152 -17.3737 -17.3306 -17.2296 -17.2012 -17.0539 -16.9502 -16.9351
   -16.7275 -16.5437 -15.9686 -15.7892 -11.7419 -11.6656 -11.6645 -11.4474
   -11.4388 -11.3418 -11.2897 -11.2850 -11.2805 -11.0066 -10.9978 -10.9298
   -10.9069 -10.7404 -10.7348 -10.6946 -10.6939 -10.5846 -10.5162 -10.3960
   -10.3253 -10.2580 -10.0727  -9.9895  -9.7520  -9.6988  -9.6362  -9.6242
    -9.5120  -9.4071  -9.3938  -9.2110  -9.1703  -9.1197  -9.1071  -8.9083
    -8.9035  -8.6573  -8.6413  -8.5893  -8.4502  -8.3318  -8.3167  -8.1412
    -8.1369  -8.1339  -8.0457  -8.0290  -7.9803  -7.9715  -7.9498  -7.7938
    -7.7825  -7.7353  -7.6487  -7.6180  -7.6019  -7.5742  -7.5454  -7.5422
    -7.3878  -7.3522  -7.3280  -7.2990  -7.2330  -7.1699  -7.1574  -7.0932
    -7.0325  -7.0103  -6.9929  -6.9553  -6.9363  -6.8852  -6.8828  -6.8258
    -6.8104  -6.7524  -6.7072  -6.5421  -6.5344  -6.5129  -6.4892  -6.4694
    -6.4557  -6.3651  -6.2922  -6.2919  -6.1592  -6.1514  -6.0957  -6.0766
    -6.0511  -6.0033  -5.8869  -5.8432  -5.7307  -5.7094  -5.6939  -5.5627
    -5.5292  -5.5127  -5.5067  -5.4854  -5.4279  -5.3135  -5.2142  -5.1343
    -5.1048  -5.1032  -5.0182  -4.9633  -4.9041  -4.8883  -4.7175  -4.6853
    -4.5742  -4.5517  -4.5393  -4.4658  -4.4105  -4.3692  -4.3582  -4.3289
    -4.2036  -4.0736  -4.0708  -4.0358  -3.9361  -3.8931  -3.7686  -3.7594
    -3.6634  -3.6248  -3.5126  -3.4819  -3.3935  -3.2820  -3.2488  -3.0875
    -3.0788  -2.7738  -2.4650  -2.1721  -1.5814   0.5520   1.2615   1.4633
     1.5071   1.7344   1.7723   1.7997   1.8365   1.8480   1.8539   1.8851
     1.9534   1.9930   2.0484   2.1236   2.1279   2.1403   2.1651   2.1805
     2.2018   2.2411   2.2471   2.2981

     occupation numbers 
     1.0000   1.0000   1.0000   1.0000   1.0000   1.0000   1.0000   1.0000
     1.0000   1.0000   1.0000   1.0000   1.0000   1.0000   1.0000   1.0000
     1.0000   1.0000   1.0000   1.0000   1.0000   1.0000   1.0000   1.0000
     1.0000   1.0000   1.0000   1.0000   1.0000   1.0000   1.0000   1.0000
     1.0000   1.0000   1.0000   1.0000   1.0000   1.0000   1.0000   1.0000
     1.0000   1.0000   1.0000   1.0000   1.0000   1.0000   1.0000   1.0000
     1.0000   1.0000   1.0000   1.0000   1.0000   1.0000   1.0000   1.0000
     1.0000   1.0000   1.0000   1.0000   1.0000   1.0000   1.0000   1.0000
     1.0000   1.0000   1.0000   1.0000   1.0000   1.0000   1.0000   1.0000
     1.0000   1.0000   1.0000   1.0000   1.0000   1.0000   1.0000   1.0000
     1.0000   1.0000   1.0000   1.0000   1.0000   1.0000   1.0000   1.0000
     1.0000   1.0000   1.0000   1.0000   1.0000   1.0000   1.0000   1.0000
     1.0000   1.0000   1.0000   1.0000   1.0000   1.0000   1.0000   1.0000
     1.0000   1.0000   1.0000   1.0000   1.0000   1.0000   1.0000   1.0000
     1.0000   1.0000   1.0000   1.0000   1.0000   1.0000   1.0000   1.0000
     1.0000   1.0000   1.0000   1.0000   1.0000   1.0000   1.0000   1.0000
     1.0000   1.0000   1.0000   1.0000   1.0000   1.0000   1.0000   1.0000
     1.0000   1.0000   1.0000   1.0000   1.0000   1.0000   1.0000   1.0000
     1.0000   1.0000   1.0000   1.0000   1.0000   1.0000   1.0000   1.0000
     1.0000   1.0000   1.0000   1.0000   1.0000   1.0000   1.0000   1.0000
     1.0000   1.0000   1.0000   1.0000   1.0000   1.0000   1.0000   1.0000
     1.0000   1.0000   1.0000   1.0000   1.0000   1.0000   1.0000   1.0000
     1.0000   1.0000   1.0000   1.0000   1.0000   1.0000   1.0000   1.0000
     1.0000   1.0000   1.0000   1.0000   1.0000   1.0000   1.0000   1.0000
     1.0000   1.0000   1.0000   1.0000   1.0000   1.0000   0.0000   0.0000
     0.0000   0.0000   0.0000   0.0000   0.0000   0.0000   0.0000   0.0000
     0.0000   0.0000   0.0000   0.0000   0.0000   0.0000   0.0000   0.0000
     0.0000   0.0000   0.0000   0.0000

          k = 0.3333 0.1925 0.0000 (161877 PWs)   bands (ev):

   -55.7500 -32.2720 -32.1381 -31.6304 -20.5649 -20.4334 -20.2581 -20.1372
   -19.9646 -19.8985 -19.7250 -19.6662 -19.5105 -19.3847 -19.3465 -19.2364
   -19.0280 -19.0062 -18.9681 -18.8337 -18.6345 -18.6040 -18.5839 -18.5266
   -18.2838 -18.2488 -18.2373 -18.2282 -18.1016 -17.9388 -17.8819 -17.8752
   -17.8477 -17.8147 -17.6711 -17.6490 -17.6029 -17.5660 -17.5208 -17.4875
   -17.4239 -17.3571 -17.3117 -17.2459 -17.1790 -17.0396 -16.9850 -16.9428
   -16.7190 -16.5405 -15.9677 -15.7902 -11.7158 -11.6909 -11.6610 -11.4705
   -11.4517 -11.3290 -11.2919 -11.2771 -11.2691 -11.0012 -10.9862 -10.9263
   -10.9034 -10.7824 -10.7252 -10.7106 -10.6774 -10.5698 -10.5254 -10.3986
   -10.3568 -10.1941 -10.0818  -9.9921  -9.7333  -9.6906  -9.6571  -9.6244
    -9.5307  -9.4701  -9.3725  -9.1821  -9.1594  -9.1339  -9.0632  -8.9826
    -8.8610  -8.6919  -8.6361  -8.5283  -8.4713  -8.3465  -8.2689  -8.1770
    -8.1443  -8.1307  -8.0565  -8.0439  -8.0138  -7.9684  -7.9239  -7.7950
    -7.7478  -7.7132  -7.6513  -7.6419  -7.5915  -7.5781  -7.5450  -7.5097
    -7.4316  -7.3644  -7.3052  -7.2826  -7.2338  -7.2156  -7.1483  -7.0541
    -7.0368  -7.0098  -6.9900  -6.9829  -6.9351  -6.8807  -6.8566  -6.8161
    -6.7925  -6.7670  -6.7371  -6.5667  -6.5504  -6.5398  -6.4865  -6.4484
    -6.4316  -6.3834  -6.2911  -6.2738  -6.1857  -6.1356  -6.1112  -6.0692
    -6.0417  -5.9581  -5.9283  -5.9008  -5.7669  -5.7174  -5.6444  -5.5368
    -5.5068  -5.5045  -5.4792  -5.4537  -5.4025  -5.2665  -5.2012  -5.1485
    -5.1025  -5.0607  -5.0509  -4.9575  -4.9487  -4.9157  -4.8902  -4.6523
    -4.5821  -4.5474  -4.5258  -4.4929  -4.3922  -4.3618  -4.3483  -4.3063
    -4.1596  -4.1053  -4.0717  -4.0478  -3.9212  -3.8593  -3.8062  -3.7379
    -3.6478  -3.5996  -3.5168  -3.4768  -3.4160  -3.3383  -3.1939  -3.1730
    -3.0031  -2.7741  -2.4715  -2.1731  -1.5808   0.5518   1.2613   1.4736
     1.5040   1.7338   1.7726   1.7833   1.8290   1.8357   1.8610   1.9063
     1.9529   1.9895   2.0435   2.1024   2.1227   2.1467   2.1638   2.1991
     2.2044   2.2247   2.2534   2.3005

     occupation numbers 
     1.0000   1.0000   1.0000   1.0000   1.0000   1.0000   1.0000   1.0000
     1.0000   1.0000   1.0000   1.0000   1.0000   1.0000   1.0000   1.0000
     1.0000   1.0000   1.0000   1.0000   1.0000   1.0000   1.0000   1.0000
     1.0000   1.0000   1.0000   1.0000   1.0000   1.0000   1.0000   1.0000
     1.0000   1.0000   1.0000   1.0000   1.0000   1.0000   1.0000   1.0000
     1.0000   1.0000   1.0000   1.0000   1.0000   1.0000   1.0000   1.0000
     1.0000   1.0000   1.0000   1.0000   1.0000   1.0000   1.0000   1.0000
     1.0000   1.0000   1.0000   1.0000   1.0000   1.0000   1.0000   1.0000
     1.0000   1.0000   1.0000   1.0000   1.0000   1.0000   1.0000   1.0000
     1.0000   1.0000   1.0000   1.0000   1.0000   1.0000   1.0000   1.0000
     1.0000   1.0000   1.0000   1.0000   1.0000   1.0000   1.0000   1.0000
     1.0000   1.0000   1.0000   1.0000   1.0000   1.0000   1.0000   1.0000
     1.0000   1.0000   1.0000   1.0000   1.0000   1.0000   1.0000   1.0000
     1.0000   1.0000   1.0000   1.0000   1.0000   1.0000   1.0000   1.0000
     1.0000   1.0000   1.0000   1.0000   1.0000   1.0000   1.0000   1.0000
     1.0000   1.0000   1.0000   1.0000   1.0000   1.0000   1.0000   1.0000
     1.0000   1.0000   1.0000   1.0000   1.0000   1.0000   1.0000   1.0000
     1.0000   1.0000   1.0000   1.0000   1.0000   1.0000   1.0000   1.0000
     1.0000   1.0000   1.0000   1.0000   1.0000   1.0000   1.0000   1.0000
     1.0000   1.0000   1.0000   1.0000   1.0000   1.0000   1.0000   1.0000
     1.0000   1.0000   1.0000   1.0000   1.0000   1.0000   1.0000   1.0000
     1.0000   1.0000   1.0000   1.0000   1.0000   1.0000   1.0000   1.0000
     1.0000   1.0000   1.0000   1.0000   1.0000   1.0000   1.0000   1.0000
     1.0000   1.0000   1.0000   1.0000   1.0000   1.0000   1.0000   1.0000
     1.0000   1.0000   1.0000   1.0000   1.0000   1.0000   0.0000   0.0000
     0.0000   0.0000   0.0000   0.0000   0.0000   0.0000   0.0000   0.0000
     0.0000   0.0000   0.0000   0.0000   0.0000   0.0000   0.0000   0.0000
     0.0000   0.0000   0.0000   0.0000

     the Fermi energy is     1.0120 ev

!    total energy              =   -1350.38214289 Ry
     Harris-Foulkes estimate   =   -1350.38214289 Ry
     estimated scf accuracy    <          8.4E-09 Ry

     The total energy is the sum of the following terms:

     one-electron contribution =   -7722.53280541 Ry
     hartree contribution      =    3950.20951595 Ry
     xc contribution           =    -368.17503500 Ry
     ewald contribution        =    2790.11618157 Ry
     smearing contrib. (-TS)   =       0.00000000 Ry

     total magnetization       =     2.00 Bohr mag/cell
     absolute magnetization    =     2.15 Bohr mag/cell

     convergence has been achieved in   7 iterations

     Forces acting on atoms (cartesian axes, Ry/au):

     atom    1 type  1   force =     0.00010710    0.00018816    0.00004377
     atom    2 type  1   force =     0.00031263   -0.00001709    0.00005600
     atom    3 type  1   force =     0.00040849    0.00029678    0.00032809
     atom    4 type  1   force =    -0.00016164   -0.00008420    0.00009163
     atom    5 type  1   force =     0.00010547   -0.00000817    0.00000451
     atom    6 type  1   force =     0.00008595   -0.00015343   -0.00002789
     atom    7 type  1   force =    -0.00025376    0.00025295   -0.00049261
     atom    8 type  1   force =    -0.00003889   -0.00014101    0.00023210
     atom    9 type  1   force =     0.00008326   -0.00016367   -0.00008958
     atom   10 type  1   force =    -0.00006343    0.00024537   -0.00014625
     atom   11 type  1   force =     0.00026094    0.00012339   -0.00013025
     atom   12 type  1   force =     0.00009476   -0.00012071    0.00012924
     atom   13 type  1   force =     0.00011652   -0.00001311   -0.00001603
     atom   14 type  1   force =     0.00007917    0.00007313   -0.00013189
     atom   15 type  1   force =     0.00004290    0.00018055    0.00017332
     atom   16 type  1   force =    -0.00005680    0.00027529   -0.00018171
     atom   17 type  1   force =    -0.00067232   -0.00014183    0.00043814
     atom   18 type  1   force =    -0.00003095    0.00021563    0.00004061
     atom   19 type  1   force =     0.00001062    0.00002385   -0.00009945
     atom   20 type  1   force =     0.00012074   -0.00003783    0.00003056
     atom   21 type  1   force =    -0.00001871    0.00003808    0.00003702
     atom   22 type  1   force =    -0.00029024   -0.00013355   -0.00031475
     atom   23 type  1   force =     0.00024102   -0.00046403   -0.00000457
     atom   24 type  1   force =     0.00036703    0.00000839    0.00063127
     atom   25 type  1   force =    -0.00020442   -0.00009261   -0.00007835
     atom   26 type  1   force =     0.00006102   -0.00023361   -0.00019035
     atom   27 type  1   force =    -0.00012226    0.00018678    0.00003688
     atom   28 type  1   force =    -0.00019784   -0.00005301   -0.00036270
     atom   29 type  1   force =    -0.00012821   -0.00011199    0.00023032
     atom   30 type  1   force =     0.00007588   -0.00005387    0.00020368
     atom   31 type  1   force =     0.00003176   -0.00026005    0.00008246
     atom   32 type  1   force =    -0.00023445    0.00067937    0.00024424
     atom   33 type  1   force =    -0.00025511   -0.00008267   -0.00012398
     atom   34 type  1   force =    -0.00008064   -0.00047649    0.00036491
     atom   35 type  1   force =    -0.00020767   -0.00018050   -0.00001700
     atom   36 type  1   force =    -0.00010120    0.00005924   -0.00045716
     atom   37 type  1   force =     0.00003961    0.00001272    0.00033229
     atom   38 type  1   force =     0.00045350    0.00006681   -0.00021143
     atom   39 type  1   force =    -0.00032901   -0.00011455    0.00007727
     atom   40 type  1   force =     0.00011856   -0.00001298    0.00036392
     atom   41 type  1   force =    -0.00000138   -0.00024569    0.00030714
     atom   42 type  1   force =     0.00023141   -0.00018613   -0.00031907
     atom   43 type  1   force =     0.00013544    0.00018283   -0.00022432
     atom   44 type  1   force =     0.00003019    0.00013530   -0.00032082
     atom   45 type  1   force =     0.00000610    0.00027081   -0.00024275
     atom   46 type  1   force =    -0.00010994   -0.00014230    0.00038789
     atom   47 type  1   force =     0.00012391    0.00007883    0.00030130
     atom   48 type  1   force =    -0.00012271    0.00004148   -0.00020817
     atom   49 type  2   force =    -0.00022478    0.00002660   -0.00016692
     atom   50 type  2   force =     0.00026300    0.00004568   -0.00006443
     atom   51 type  2   force =     0.00026240    0.00003320    0.00016148
     atom   52 type  2   force =     0.00005499    0.00030513   -0.00008518
     atom   53 type  2   force =     0.00000414   -0.00013908    0.00037928
     atom   54 type  2   force =     0.00002138    0.00005231    0.00009828
     atom   55 type  2   force =    -0.00020229    0.00006048   -0.00040776
     atom   56 type  2   force =    -0.00000641    0.00006183   -0.00019329
     atom   57 type  2   force =     0.00009086    0.00001759   -0.00033038
     atom   58 type  2   force =    -0.00023392   -0.00019699   -0.00000644
     atom   59 type  2   force =     0.00014164    0.00000874   -0.00006556
     atom   60 type  2   force =    -0.00001313    0.00000802   -0.00034581
     atom   61 type  2   force =     0.00008086   -0.00008165    0.00014150
[...]
     atom   36 type  1   force =     0.00000000    0.00000000    0.00000000
     atom   37 type  1   force =     0.00000000    0.00000000    0.00000000
     atom   38 type  1   force =     0.00000000    0.00000000    0.00000000
     atom   39 type  1   force =     0.00000000    0.00000000    0.00000000
     atom   40 type  1   force =     0.00000000    0.00000000    0.00000000
     atom   41 type  1   force =     0.00000000    0.00000000    0.00000000
     atom   42 type  1   force =     0.00000000    0.00000000    0.00000000
     atom   43 type  1   force =     0.00000000    0.00000000    0.00000000
     atom   44 type  1   force =     0.00000000    0.00000000    0.00000000
     atom   45 type  1   force =     0.00000000    0.00000000    0.00000000
     atom   46 type  1   force =     0.00000000    0.00000000    0.00000000
     atom   47 type  1   force =     0.00000000    0.00000000    0.00000000
     atom   48 type  1   force =     0.00000000    0.00000000    0.00000000
     atom   49 type  2   force =     0.00000000    0.00000000    0.00000000
     atom   50 type  2   force =     0.00000000    0.00000000    0.00000000
     atom   51 type  2   force =     0.00000000    0.00000000    0.00000000
     atom   52 type  2   force =     0.00000000    0.00000000    0.00000000
     atom   53 type  2   force =     0.00000000    0.00000000    0.00000000
     atom   54 type  2   force =     0.00000000    0.00000000    0.00000000
     atom   55 type  2   force =     0.00000000    0.00000000    0.00000000
     atom   56 type  2   force =     0.00000000    0.00000000    0.00000000
     atom   57 type  2   force =     0.00000000    0.00000000    0.00000000
     atom   58 type  2   force =     0.00000000    0.00000000    0.00000000
     atom   59 type  2   force =     0.00000000    0.00000000    0.00000000
     atom   60 type  2   force =     0.00000000    0.00000000    0.00000000
     atom   61 type  2   force =     0.00000000    0.00000000    0.00000000
     atom   62 type  2   force =     0.00000000    0.00000000    0.00000000
     atom   63 type  2   force =     0.00000000    0.00000000    0.00000000
     atom   64 type  2   force =     0.00000000    0.00000000    0.00000000
     atom   65 type  2   force =     0.00000000    0.00000000    0.00000000
     atom   66 type  2   force =     0.00000000    0.00000000    0.00000000
     atom   67 type  2   force =     0.00000000    0.00000000    0.00000000
     atom   68 type  2   force =     0.00000000    0.00000000    0.00000000
     atom   69 type  2   force =     0.00000000    0.00000000    0.00000000
     atom   70 type  2   force =     0.00000000    0.00000000    0.00000000
     atom   71 type  2   force =     0.00000000    0.00000000    0.00000000
     atom   72 type  2   force =     0.00000000    0.00000000    0.00000000
     atom   73 type  2   force =     0.00000000    0.00000000    0.00000000
     atom   74 type  2   force =     0.00000000    0.00000000    0.00000000
     atom   75 type  2   force =     0.00000000    0.00000000    0.00000000
     atom   76 type  2   force =     0.00000000    0.00000000    0.00000000
     atom   77 type  2   force =     0.00000000    0.00000000    0.00000000
     atom   78 type  2   force =     0.00000000    0.00000000    0.00000000
     atom   79 type  2   force =     0.00000000    0.00000000    0.00000000
     atom   80 type  2   force =     0.00000000    0.00000000    0.00000000
     atom   81 type  2   force =     0.00000000    0.00000000    0.00000000
     atom   82 type  2   force =     0.00000000    0.00000000    0.00000000
     atom   83 type  2   force =     0.00000000    0.00000000    0.00000000
     atom   84 type  2   force =     0.00000000    0.00000000    0.00000000
     atom   85 type  2   force =     0.00000000    0.00000000    0.00000000
     atom   86 type  2   force =     0.00000000    0.00000000    0.00000000
     atom   87 type  2   force =     0.00000000    0.00000000    0.00000000
     atom   88 type  2   force =     0.00000000    0.00000000    0.00000000
     atom   89 type  2   force =     0.00000000    0.00000000    0.00000000
     atom   90 type  2   force =     0.00000000    0.00000000    0.00000000
     atom   91 type  2   force =     0.00000000    0.00000000    0.00000000
     atom   92 type  2   force =     0.00000000    0.00000000    0.00000000
     atom   93 type  2   force =     0.00000000    0.00000000    0.00000000
     atom   94 type  2   force =     0.00000000    0.00000000    0.00000000
     atom   95 type  2   force =     0.00000000    0.00000000    0.00000000
     atom   96 type  2   force =     0.00000000    0.00000000    0.00000000
     atom   97 type  3   force =     0.00000000    0.00000000    0.00000000
     The SCF correction term to forces
     atom    1 type  1   force =    -0.00000405    0.00000310   -0.00000797
     atom    2 type  1   force =     0.00000115    0.00000327   -0.00000548
     atom    3 type  1   force =     0.00000326    0.00000004   -0.00000204
     atom    4 type  1   force =     0.00000277    0.00000218   -0.00000043
     atom    5 type  1   force =     0.00000208   -0.00000186   -0.00000186
     atom    6 type  1   force =     0.00000109   -0.00000342   -0.00000591
     atom    7 type  1   force =    -0.00000175   -0.00000032   -0.00000640
     atom    8 type  1   force =     0.00000036    0.00000303   -0.00000716
     atom    9 type  1   force =     0.00000242    0.00001028   -0.00000526
     atom   10 type  1   force =     0.00001078    0.00000479   -0.00000237
     atom   11 type  1   force =     0.00000563   -0.00000209   -0.00000007
     atom   12 type  1   force =     0.00000033   -0.00000117   -0.00000171
     atom   13 type  1   force =     0.00000106   -0.00000340   -0.00000406
     atom   14 type  1   force =     0.00000092    0.00000058   -0.00000662
     atom   15 type  1   force =    -0.00000029   -0.00000085   -0.00000413
     atom   16 type  1   force =    -0.00000124    0.00002461   -0.00000148
     atom   17 type  1   force =     0.00001908    0.00002884   -0.00000117
     atom   18 type  1   force =     0.00002853   -0.00001648   -0.00000094
     atom   19 type  1   force =     0.00000183   -0.00000221   -0.00000058
     atom   20 type  1   force =     0.00000198   -0.00000119   -0.00000180
     atom   21 type  1   force =     0.00000335   -0.00000218   -0.00000224
     atom   22 type  1   force =     0.00000155   -0.00000232    0.00000158
     atom   23 type  1   force =    -0.00000557    0.00001074   -0.00000064
     atom   24 type  1   force =    -0.00001931    0.00001377   -0.00001623
     atom   25 type  1   force =     0.00001423   -0.00001576   -0.00000296
     atom   26 type  1   force =     0.00000142   -0.00000058   -0.00000110
     atom   27 type  1   force =     0.00000279   -0.00000294   -0.00000104
     atom   28 type  1   force =     0.00000213   -0.00000306    0.00000062
     atom   29 type  1   force =     0.00000127    0.00000376    0.00000086
     atom   30 type  1   force =    -0.00001135    0.00000842   -0.00000397
     atom   31 type  1   force =    -0.00001464   -0.00000414   -0.00000509
     atom   32 type  1   force =    -0.00000952   -0.00001611   -0.00000561
     atom   33 type  1   force =     0.00000162   -0.00000556   -0.00000261
     atom   34 type  1   force =    -0.00000071   -0.00000242   -0.00000260
     atom   35 type  1   force =    -0.00000118   -0.00000084   -0.00000155
     atom   36 type  1   force =     0.00000224   -0.00000021    0.00000101
     atom   37 type  1   force =    -0.00000225    0.00000191    0.00000008
     atom   38 type  1   force =    -0.00000589   -0.00000077   -0.00000169
     atom   39 type  1   force =    -0.00000913   -0.00000633   -0.00000550
     atom   40 type  1   force =    -0.00000494   -0.00000600   -0.00000625
     atom   41 type  1   force =    -0.00000249   -0.00000243   -0.00000606
     atom   42 type  1   force =     0.00000094    0.00000031   -0.00000627
     atom   43 type  1   force =     0.00000040    0.00000153   -0.00000076
     atom   44 type  1   force =     0.00000105   -0.00000137    0.00000018
     atom   45 type  1   force =    -0.00000126    0.00000071    0.00000167
     atom   46 type  1   force =    -0.00000016   -0.00000246   -0.00000316
     atom   47 type  1   force =    -0.00000229   -0.00000235   -0.00000716
     atom   48 type  1   force =    -0.00000242    0.00000165   -0.00000882
     atom   49 type  2   force =    -0.00000189    0.00000050   -0.00001514
     atom   50 type  2   force =    -0.00000577    0.00000622   -0.00001793
     atom   51 type  2   force =     0.00000463    0.00000364   -0.00001076
     atom   52 type  2   force =     0.00000554   -0.00000109   -0.00000231
     atom   53 type  2   force =     0.00000128   -0.00000008   -0.00000266
     atom   54 type  2   force =     0.00000116   -0.00000426   -0.00000805
     atom   55 type  2   force =     0.00000152   -0.00000155   -0.00001089
     atom   56 type  2   force =     0.00000199   -0.00000174   -0.00002080
     atom   57 type  2   force =    -0.00000376    0.00001298   -0.00001260
     atom   58 type  2   force =     0.00001611    0.00002951   -0.00000880
     atom   59 type  2   force =     0.00002298   -0.00000221    0.00000287
     atom   60 type  2   force =     0.00000877   -0.00000099    0.00000006
     atom   61 type  2   force =     0.00000479   -0.00000434   -0.00000756
     atom   62 type  2   force =     0.00000160   -0.00000138   -0.00001156
     atom   63 type  2   force =     0.00000209   -0.00000098    0.00000248
     atom   64 type  2   force =    -0.00000107    0.00001558   -0.00000763
     atom   65 type  2   force =     0.00000598    0.00006478   -0.00000310
     atom   66 type  2   force =     0.00003904    0.00000111   -0.00002128
     atom   67 type  2   force =     0.00001848   -0.00002031   -0.00000277
     atom   68 type  2   force =     0.00000309   -0.00000567    0.00000129
     atom   69 type  2   force =     0.00000518   -0.00000316   -0.00000465
     atom   70 type  2   force =     0.00000473   -0.00000619    0.00000401
     atom   71 type  2   force =    -0.00000211   -0.00000067    0.00000599
     atom   72 type  2   force =    -0.00003282    0.00003379   -0.00000808
     atom   73 type  2   force =    -0.00000076   -0.00003349   -0.00002495
     atom   74 type  2   force =     0.00000646   -0.00000914   -0.00000019
     atom   75 type  2   force =     0.00000221   -0.00000106   -0.00000575
     atom   76 type  2   force =     0.00000159   -0.00000443   -0.00000385
     atom   77 type  2   force =     0.00000686   -0.00000246    0.00000451
     atom   78 type  2   force =    -0.00000101    0.00000813   -0.00000545
     atom   79 type  2   force =    -0.00002978    0.00000028   -0.00001212
     atom   80 type  2   force =    -0.00002653   -0.00002058   -0.00001528
     atom   81 type  2   force =    -0.00001144   -0.00001469   -0.00000730
     atom   82 type  2   force =    -0.00000186   -0.00000407   -0.00000757
     atom   83 type  2   force =    -0.00000141   -0.00000225   -0.00001095
     atom   84 type  2   force =     0.00000193    0.00000082    0.00000389
     atom   85 type  2   force =     0.00000376    0.00000019   -0.00000190
     atom   86 type  2   force =    -0.00000139    0.00000124    0.00000890
     atom   87 type  2   force =    -0.00000639   -0.00000415   -0.00000338
     atom   88 type  2   force =    -0.00000917   -0.00000697   -0.00001451
     atom   89 type  2   force =    -0.00000914    0.00000145   -0.00002134
     atom   90 type  2   force =    -0.00000385    0.00000433   -0.00002196
     atom   91 type  2   force =     0.00000305    0.00000386   -0.00000716
     atom   92 type  2   force =     0.00000368   -0.00000278   -0.00000104
     atom   93 type  2   force =    -0.00000051    0.00000071    0.00000278
     atom   94 type  2   force =     0.00000046   -0.00000167    0.00000007
     atom   95 type  2   force =     0.00000317   -0.00000508   -0.00002003
     atom   96 type  2   force =    -0.00000080    0.00000111   -0.00001401
     atom   97 type  3   force =    -0.00008290   -0.00003613   -0.00015262

     Total force =     0.003585     Total SCF correction =     0.000243

     BFGS Geometry Optimization

     bfgs converged in   1 scf cycles and   0 bfgs steps
     (criteria: energy <  1.0E-05 Ry, force <  1.0E-03 Ry/Bohr)

     End of BFGS Geometry Optimization

     Final energy   =   -1350.3821428923 Ry
Begin final coordinates

ATOMIC_POSITIONS (crystal)
B        0.046930746   0.094536934   0.487066263
B        0.046787588   0.237469627   0.490957591
B        0.046900073   0.380219958   0.496240466
B        0.047290963   0.522946327   0.498056182
B        0.047540030   0.665726285   0.496028470
B        0.047471951   0.808722009   0.491098028
B        0.047414789   0.951762201   0.487613630
B        0.189964242   0.094503594   0.489379943
B        0.189217693   0.236774628   0.491441616
B        0.189743563   0.379761190   0.499507219
B        0.190724194   0.522384878   0.503102589
B        0.191126044   0.665387650   0.500584970
B        0.190699859   0.808546809   0.495858815
B        0.190496738   0.951744394   0.491576955
B        0.333327365   0.095085076   0.495505827
B        0.332415632   0.237362403   0.496893754
B        0.330805347   0.378309368   0.511016996
B        0.333977327   0.520111775   0.519586917
B        0.334839672   0.664464400   0.509778048
B        0.333878105   0.808153479   0.500778705
B        0.333528813   0.951716886   0.496355719
B        0.476105256   0.095647325   0.499351889
B        0.475790474   0.239659069   0.505353965
B        0.473134240   0.382111523   0.529900750
B        0.479262449   0.665426102   0.520346790
B        0.476901246   0.808574815   0.503393710
B        0.476332998   0.951988532   0.498430559
B        0.618744210   0.095481726   0.498388798
B        0.618313218   0.238810413   0.503846940
B        0.617233640   0.382154337   0.514566796
B        0.617410064   0.526301777   0.531543239
B        0.621065806   0.668535615   0.511863807
B        0.619513778   0.809511429   0.499400182
B        0.619048620   0.952351552   0.496058505
B        0.761467222   0.095270909   0.493714559
B        0.761117376   0.238130923   0.499116551
B        0.760480980   0.380956347   0.503851967
B        0.759670450   0.523497749   0.505848664
B        0.761864176   0.666789168   0.496600771
B        0.762406480   0.809939487   0.490254449
B        0.761755399   0.952419052   0.489928167
B        0.904208768   0.095017600   0.488821440
B        0.903968026   0.237784356   0.494084680
B        0.903782972   0.380522739   0.498246861
B        0.903631278   0.523157305   0.499084899
B        0.904157858   0.665896200   0.494921726
B        0.904679911   0.809198555   0.488120520
B        0.904635892   0.952227418   0.486234540
N        0.094522076   0.046699900   0.487312728
N        0.093678221   0.189227532   0.488359107
N        0.093891678   0.332321924   0.494716245
N        0.094770256   0.475358406   0.498362152
N        0.095444484   0.618257217   0.497888940
N        0.095405939   0.761144473   0.494302340
N        0.095184885   0.904037359   0.489605519
N        0.237656964   0.046603937   0.491175240
N        0.236470679   0.188699847   0.490630899
N        0.235313345   0.330703009   0.497423815
N        0.237300585   0.474638362   0.506127686
N        0.238592595   0.617908429   0.504998729
N        0.238347022   0.760914288   0.499166596
N        0.238112428   0.903845327   0.494455025
N        0.380762053   0.046831447   0.496851807
N        0.380163747   0.189309783   0.498859031
N        0.378093811   0.330038727   0.505898427
N        0.375677062   0.469479783   0.530298705
N        0.382012567   0.617345401   0.518924447
N        0.381375703   0.760706464   0.505169992
N        0.381017309   0.903837655   0.498252218
N        0.523597962   0.047471178   0.498600808
N        0.523219726   0.190605290   0.502608838
N        0.522084686   0.333633189   0.515952656
N        0.530032055   0.623953731   0.531972849
N        0.524681803   0.762041157   0.506588725
N        0.523929878   0.904518417   0.498600203
N        0.666430743   0.047847033   0.495646956
N        0.666082461   0.190605696   0.500569681
N        0.665567255   0.333711553   0.507108312
N        0.665789121   0.477266110   0.517081407
N        0.669313701   0.621219582   0.506696133
N        0.668529634   0.763892781   0.497159246
N        0.666919101   0.905329534   0.494152344
N        0.809171463   0.047817334   0.489898922
N        0.808834042   0.190405529   0.495619296
N        0.808663500   0.333163991   0.500434862
N        0.808696817   0.476046004   0.502690537
N        0.809976569   0.619087266   0.498818006
N        0.810481578   0.762688340   0.489226847
N        0.809943057   0.905482314   0.486914661
N        0.951806991   0.047363193   0.486645825
N        0.951404886   0.190054322   0.490699297
N        0.951405269   0.332824134   0.495863403
N        0.951805331   0.475669335   0.498175798
N        0.952432731   0.618489007   0.496479482
N        0.952610145   0.761537245   0.490065949
N        0.952480650   0.904645136   0.486423775
Ti       0.492831409   0.505950004   0.590821103
End final coordinates



     Writing output data file BN.save
 
     init_run     :      5.72s CPU      7.77s WALL (       1 calls)
     electrons    :     67.19s CPU     79.41s WALL (       1 calls)
     forces       :      2.77s CPU      3.54s WALL (       1 calls)

     Called by init_run:
     wfcinit      :      2.47s CPU      2.83s WALL (       1 calls)
     wfcinit:atom :      0.01s CPU      0.03s WALL (       1 calls)
     wfcinit:wfcr :      2.37s CPU      2.59s WALL (       1 calls)
     potinit      :      1.56s CPU      2.94s WALL (       1 calls)

     Called by electrons:
     c_bands      :     52.63s CPU     57.76s WALL (       8 calls)
     sum_band     :      7.77s CPU     10.88s WALL (       8 calls)
     v_of_rho     :      1.38s CPU      1.43s WALL (       8 calls)
     v_h          :      0.05s CPU      0.05s WALL (       8 calls)
     v_xc         :      1.33s CPU      1.38s WALL (       8 calls)
     mix_rho      :      0.27s CPU      0.30s WALL (       8 calls)

     Called by c_bands:
     init_us_2    :      0.58s CPU      0.62s WALL (      17 calls)
     cegterg      :     48.58s CPU     51.49s WALL (       8 calls)

     Called by sum_band:

     Called by *egterg:
     h_psi        :     29.54s CPU     30.21s WALL (      67 calls)
     g_psi        :      0.16s CPU      0.16s WALL (      58 calls)
     cdiaghg      :      4.72s CPU      5.86s WALL (      65 calls)
     cegterg:over :      5.60s CPU      5.67s WALL (      58 calls)
     cegterg:upda :      6.87s CPU      7.01s WALL (      58 calls)
     cegterg:last :      2.30s CPU      2.35s WALL (      10 calls)
     cdiaghg:chol :      0.21s CPU      0.32s WALL (      65 calls)
     cdiaghg:inve :      0.11s CPU      0.12s WALL (      65 calls)
     cdiaghg:para :      0.53s CPU      0.66s WALL (     130 calls)

     Called by h_psi:
     h_psi:pot    :     29.10s CPU     29.76s WALL (      67 calls)
     h_psi:calbec :      6.11s CPU      6.23s WALL (      67 calls)
     vloc_psi     :     16.76s CPU     17.27s WALL (      67 calls)
     add_vuspsi   :      6.24s CPU      6.26s WALL (      67 calls)

     General routines
     calbec       :      6.93s CPU      7.06s WALL (      71 calls)
     fft          :      0.86s CPU      1.13s WALL (     169 calls)
     fftw         :     16.52s CPU     17.05s WALL (   13724 calls)
 
     Parallel routines
     fft_scatter  :      6.85s CPU      7.37s WALL (   13893 calls)
 
     PWSCF        :  1m55.73s CPU     2m43.81s WALL

 
   This run was terminated on:   9:39:10  26Mar2020            

=------------------------------------------------------------------------------=
   JOB DONE.
=------------------------------------------------------------------------------=
