TACC:  Starting up job 3538827 
TACC:  Starting parallel tasks... 

     Program PWSCF v.6.1 (svn rev. 13369) starts on 10May2019 at 17:33:55 

     This program is part of the open-source Quantum ESPRESSO suite
     for quantum simulation of materials; please cite
         "P. Giannozzi et al., J. Phys.:Condens. Matter 21 395502 (2009);
          URL http://www.quantum-espresso.org", 
     in publications or presentations arising from this work. More details at
     http://www.quantum-espresso.org/quote

     Parallel version (MPI), running on    96 processors
     K-points division:     npool     =       4
     R & G space division:  proc/nbgrp/npool/nimage =      24
     Waiting for input...
     Reading input from standard input
Warning: card &CELL ignored
Warning: card / ignored
Warning: card &IONS ignored
Warning: card / ignored

     Current dimensions of program PWSCF are:
     Max number of different atomic species (ntypx) = 10
     Max number of k-points (npk) =  40000
     Max angular momentum in pseudopotentials (lmaxx) =  3

     Atomic positions and unit cell read from directory:
     ./out/bn.save/
 

     Subspace diagonalization in iterative solution of the eigenvalue problem:
     one sub-group per band group will be used
     scalapack distributed-memory algorithm (size of sub-group:  3*  3 procs)

 
     Parallelization info
     --------------------
     sticks:   dense  smooth     PW     G-vecs:    dense   smooth      PW
     Min         667     667    171                72213    72213    9425
     Max         668     668    172                72218    72218    9430
     Sum       16021   16021   4117              1733155  1733155  226235
 


     bravais-lattice index     =            0
     lattice parameter (alat)  =      28.4285  a.u.
     unit-cell volume          =   20997.1598 (a.u.)^3
     number of atoms/cell      =           71
     number of atomic types    =            2
     number of electrons       =       285.00
     number of Kohn-Sham states=          570
     kinetic-energy cutoff     =      72.0000  Ry
     charge density cutoff     =     288.0000  Ry
     Exchange-correlation      = PBE ( 1  4  3  4 0 0)

     celldm(1)=  28.428531  celldm(2)=   0.000000  celldm(3)=   0.000000
     celldm(4)=   0.000000  celldm(5)=   0.000000  celldm(6)=   0.000000

     crystal axes: (cart. coord. in units of alat)
               a(1) = (   1.000000   0.000000   0.000000 )  
               a(2) = (  -0.500000   0.866025   0.000000 )  
               a(3) = (   0.000000   0.000000   1.055277 )  

     reciprocal axes: (cart. coord. in units 2 pi/alat)
               b(1) = (  1.000000  0.577350  0.000000 )  
               b(2) = (  0.000000  1.154701  0.000000 )  
               b(3) = (  0.000000  0.000000  0.947618 )  


     PseudoPot. # 1 for B  read from file:
     /home1/06235/tg855346/pseudopotentials/oncv/dojo/nc-sr-04_pbe_standard/B.upf
     MD5 check sum: 72f82fc31bc892420d0cab7e25c88ab8
     Pseudo is Norm-conserving + core correction, Zval =  3.0
     Generated using ONCVPSP code by D. R. Hamann
     Using radial grid of 1534 points,  4 beta functions with: 
                l(1) =   0
                l(2) =   0
                l(3) =   1
                l(4) =   1

     PseudoPot. # 2 for N  read from file:
     /home1/06235/tg855346/pseudopotentials/oncv/dojo/nc-sr-04_pbe_standard/N.upf
     MD5 check sum: d34365f73bb0e2ee98afc20ec3e87676
     Pseudo is Norm-conserving + core correction, Zval =  5.0
     Generated using ONCVPSP code by D. R. Hamann
     Using radial grid of 1058 points,  4 beta functions with: 
                l(1) =   0
                l(2) =   0
                l(3) =   1
                l(4) =   1

     atomic species   valence    mass     pseudopotential
        B              3.00    10.81100     B ( 1.00)
        N              5.00    14.00670     N ( 1.00)

     Starting magnetic structure 
     atomic species   magnetization
        B            1.000
        N            0.000

      2 Sym. Ops. (no inversion) found


                                    s                        frac. trans.

      isym =  1     identity                                     

 cryst.   s( 1) = (     1          0          0      )
                  (     0          1          0      )
                  (     0          0          1      )

 cart.    s( 1) = (  1.0000000  0.0000000  0.0000000 )
                  (  0.0000000  1.0000000  0.0000000 )
                  (  0.0000000  0.0000000  1.0000000 )


      isym =  2     inv. 180 deg rotation - cart. axis [0,0,1]   

 cryst.   s( 2) = (     1          0          0      )
                  (     0          1          0      )
                  (     0          0         -1      )

 cart.    s( 2) = (  1.0000000  0.0000000  0.0000000 )
                  (  0.0000000  1.0000000  0.0000000 )
                  (  0.0000000  0.0000000 -1.0000000 )


   Cartesian axes

     site n.     atom                  positions (alat units)
         1           B   tau(   1) = (   0.0847231   0.0481540   0.0000000  )
         2           B   tau(   2) = (   0.0016770   0.1914565   0.0000000  )
         3           B   tau(   3) = (  -0.0840778   0.3353945   0.0000000  )
         4           B   tau(   4) = (  -0.1696568   0.4797546   0.0000000  )
         5           B   tau(   5) = (  -0.2530748   0.6239652   0.0000000  )
         6           B   tau(   6) = (  -0.3348404   0.7684369   0.0000000  )
         7           B   tau(   7) = (   0.2505117   0.0502720   0.0000000  )
         8           B   tau(   8) = (   0.1709026   0.1983438   0.0000000  )
         9           B   tau(   9) = (   0.0817528   0.3373515   0.0000000  )
        10           B   tau(  10) = (  -0.0042095   0.4808807   0.0000000  )
        11           B   tau(  11) = (  -0.0867441   0.6252872   0.0000000  )
        12           B   tau(  12) = (  -0.1688195   0.7699870   0.0000000  )
        13           B   tau(  13) = (   0.4160692   0.0489274   0.0000000  )
        14           B   tau(  14) = (   0.3356978   0.1980139   0.0000000  )
        15           B   tau(  15) = (   0.2531664   0.3544380   0.0000000  )
        16           B   tau(  16) = (   0.1597980   0.4828478   0.0000000  )
        17           B   tau(  17) = (   0.0795233   0.6259253   0.0000000  )
        18           B   tau(  18) = (  -0.0021996   0.7698349   0.0000000  )
        19           B   tau(  19) = (   0.5841764   0.0456361   0.0000000  )
        20           B   tau(  20) = (   0.5048932   0.1891278   0.0000000  )
        21           N   tau(  21) = (   0.4218040   0.3315653   0.0000000  )
        22           B   tau(  22) = (   0.3177000   0.4662634   0.0000000  )
        23           B   tau(  23) = (   0.2467476   0.6231930   0.0000000  )
        24           B   tau(  24) = (   0.1655985   0.7678115   0.0000000  )
        25           B   tau(  25) = (   0.7514437   0.0444982   0.0000000  )
        26           B   tau(  26) = (   0.6701744   0.1882608   0.0000000  )
        27           B   tau(  27) = (   0.5866993   0.3309240   0.0000000  )
        28           B   tau(  28) = (   0.4944463   0.4730006   0.0000000  )
        29           B   tau(  29) = (   0.4117551   0.6155477   0.0000000  )
        30           B   tau(  30) = (   0.3330453   0.7654626   0.0000000  )
        31           B   tau(  31) = (   0.9178190   0.0451881   0.0000000  )
        32           B   tau(  32) = (   0.8352774   0.1897201   0.0000000  )
        33           B   tau(  33) = (   0.7506285   0.3340390   0.0000000  )
        34           B   tau(  34) = (   0.6637847   0.4779533   0.0000000  )
        35           B   tau(  35) = (   0.5798262   0.6206343   0.0000000  )
        36           B   tau(  36) = (   0.4986761   0.7652428   0.0000000  )
        37           N   tau(  37) = (   0.0009878   0.0948530   0.0000000  )
        38           N   tau(  38) = (  -0.0821535   0.2389025   0.0000000  )
        39           N   tau(  39) = (  -0.1675063   0.3833042   0.0000000  )
        40           N   tau(  40) = (  -0.2533358   0.5273925   0.0000000  )
        41           N   tau(  41) = (  -0.3366966   0.6711428   0.0000000  )
        42           N   tau(  42) = (  -0.4178046   0.8162870   0.0000000  )
        43           N   tau(  43) = (   0.1683492   0.0997017   0.0000000  )
        44           N   tau(  44) = (   0.0846690   0.2413717   0.0000000  )
        45           N   tau(  45) = (  -0.0021402   0.3846286   0.0000000  )
        46           N   tau(  46) = (  -0.0871835   0.5289095   0.0000000  )
        47           N   tau(  47) = (  -0.1698997   0.6733168   0.0000000  )
        48           N   tau(  48) = (  -0.2515372   0.8187653   0.0000000  )
        49           N   tau(  49) = (   0.3340221   0.1000458   0.0000000  )
        50           N   tau(  50) = (   0.2554617   0.2523207   0.0000000  )
        51           N   tau(  51) = (   0.1629030   0.3873751   0.0000000  )
        52           N   tau(  52) = (   0.0777490   0.5302427   0.0000000  )
        53           N   tau(  53) = (  -0.0034931   0.6738819   0.0000000  )
        54           N   tau(  54) = (  -0.0852922   0.8185052   0.0000000  )
        55           N   tau(  55) = (   0.5011444   0.0940486   0.0000000  )
        56           N   tau(  56) = (   0.4240715   0.2398383   0.0000000  )
        57           N   tau(  57) = (   0.2440043   0.5279301   0.0000000  )
        58           N   tau(  58) = (   0.1639025   0.6722354   0.0000000  )
        59           N   tau(  59) = (   0.0824418   0.8161250   0.0000000  )
        60           N   tau(  60) = (   0.6683863   0.0925773   0.0000000  )
        61           N   tau(  61) = (   0.5876484   0.2358831   0.0000000  )
        62           N   tau(  62) = (   0.5023518   0.3755625   0.0000000  )
        63           N   tau(  63) = (   0.4073170   0.5153750   0.0000000  )
        64           N   tau(  64) = (   0.3313017   0.6686342   0.0000000  )
        65           N   tau(  65) = (   0.2501000   0.8144031   0.0000000  )
        66           N   tau(  66) = (   0.8346795   0.0932545   0.0000000  )
        67           N   tau(  67) = (   0.7521500   0.2376894   0.0000000  )
        68           N   tau(  68) = (   0.6671665   0.3817227   0.0000000  )
        69           N   tau(  69) = (   0.5784824   0.5234233   0.0000000  )
        70           N   tau(  70) = (   0.4959339   0.6671172   0.0000000  )
        71           N   tau(  71) = (   0.4163257   0.8143468   0.0000000  )

   Crystallographic axes

     site n.     atom                  positions (cryst. coord.)
         1           B   tau(   1) = (  0.1125249  0.0556035  0.0000000  )
         2           B   tau(   2) = (  0.1122145  0.2210750  0.0000000  )
         3           B   tau(   3) = (  0.1095623  0.3872802  0.0000000  )
         4           B   tau(   4) = (  0.1073296  0.5539729  0.0000000  )
         5           B   tau(   5) = (  0.1071717  0.7204929  0.0000000  )
         6           B   tau(   6) = (  0.1088169  0.8873145  0.0000000  )
         7           B   tau(   7) = (  0.2795363  0.0580492  0.0000000  )
         8           B   tau(   8) = (  0.2854165  0.2290277  0.0000000  )
         9           B   tau(   9) = (  0.2765228  0.3895400  0.0000000  )
        10           B   tau(  10) = (  0.2734271  0.5552732  0.0000000  )
        11           B   tau(  11) = (  0.2742656  0.7220195  0.0000000  )
        12           B   tau(  12) = (  0.2757327  0.8891044  0.0000000  )
        13           B   tau(  13) = (  0.4443174  0.0564964  0.0000000  )
        14           B   tau(  14) = (  0.4500212  0.2286468  0.0000000  )
        15           B   tau(  15) = (  0.4578013  0.4092698  0.0000000  )
        16           B   tau(  16) = (  0.4385703  0.5575447  0.0000000  )
        17           B   tau(  17) = (  0.4409014  0.7227563  0.0000000  )
        18           B   tau(  18) = (  0.4422648  0.8889287  0.0000000  )
        19           B   tau(  19) = (  0.6105244  0.0526960  0.0000000  )
        20           B   tau(  20) = (  0.6140862  0.2183860  0.0000000  )
        21           N   tau(  21) = (  0.6132333  0.3828586  0.0000000  )
        22           B   tau(  22) = (  0.5868973  0.5383946  0.0000000  )
        23           B   tau(  23) = (  0.6065483  0.7196013  0.0000000  )
        24           B   tau(  24) = (  0.6088947  0.8865923  0.0000000  )
        25           B   tau(  25) = (  0.7771348  0.0513821  0.0000000  )
        26           B   tau(  26) = (  0.7788669  0.2173848  0.0000000  )
        27           B   tau(  27) = (  0.7777584  0.3821182  0.0000000  )
        28           B   tau(  28) = (  0.7675334  0.5461741  0.0000000  )
        29           B   tau(  29) = (  0.7671417  0.7107732  0.0000000  )
        30           B   tau(  30) = (  0.7749854  0.8838801  0.0000000  )
        31           B   tau(  31) = (  0.9439084  0.0521788  0.0000000  )
        32           B   tau(  32) = (  0.9448123  0.2190699  0.0000000  )
        33           B   tau(  33) = (  0.9434860  0.3857150  0.0000000  )
        34           B   tau(  34) = (  0.9397312  0.5518930  0.0000000  )
        35           B   tau(  35) = (  0.9381496  0.7166468  0.0000000  )
        36           B   tau(  36) = (  0.9404893  0.8836263  0.0000000  )
        37           N   tau(  37) = (  0.0557511  0.1095268  0.0000000  )
        38           N   tau(  38) = (  0.0557769  0.2758609  0.0000000  )
        39           N   tau(  39) = (  0.0537945  0.4426015  0.0000000  )
        40           N   tau(  40) = (  0.0511544  0.6089805  0.0000000  )
        41           N   tau(  41) = (  0.0507879  0.7749689  0.0000000  )
        42           N   tau(  42) = (  0.0534789  0.9425670  0.0000000  )
        43           N   tau(  43) = (  0.2259120  0.1151257  0.0000000  )
        44           N   tau(  44) = (  0.2240250  0.2787120  0.0000000  )
        45           N   tau(  45) = (  0.2199253  0.4441309  0.0000000  )
        46           N   tau(  46) = (  0.2181825  0.6107321  0.0000000  )
        47           N   tau(  47) = (  0.2188399  0.7774793  0.0000000  )
        48           N   tau(  48) = (  0.2211771  0.9454287  0.0000000  )
        49           N   tau(  49) = (  0.3917836  0.1155230  0.0000000  )
        50           N   tau(  50) = (  0.4011392  0.2913549  0.0000000  )
        51           N   tau(  51) = (  0.3865541  0.4473022  0.0000000  )
        52           N   tau(  52) = (  0.3838848  0.6122716  0.0000000  )
        53           N   tau(  53) = (  0.3855727  0.7781317  0.0000000  )
        54           N   tau(  54) = (  0.3872720  0.9451284  0.0000000  )
        55           N   tau(  55) = (  0.5554433  0.1085980  0.0000000  )
        56           N   tau(  56) = (  0.5625422  0.2769414  0.0000000  )
        57           N   tau(  57) = (  0.5488049  0.6096012  0.0000000  )
        58           N   tau(  58) = (  0.5520177  0.7762306  0.0000000  )
        59           N   tau(  59) = (  0.5536318  0.9423799  0.0000000  )
        60           N   tau(  60) = (  0.7218358  0.1068991  0.0000000  )
        61           N   tau(  61) = (  0.7238356  0.2723744  0.0000000  )
        62           N   tau(  62) = (  0.7191830  0.4336623  0.0000000  )
        63           N   tau(  63) = (  0.7048689  0.5951038  0.0000000  )
        64           N   tau(  64) = (  0.7173379  0.7720723  0.0000000  )
        65           N   tau(  65) = (  0.7202958  0.9403917  0.0000000  )
        66           N   tau(  66) = (  0.8885200  0.1076810  0.0000000  )
        67           N   tau(  67) = (  0.8893801  0.2744601  0.0000000  )
        68           N   tau(  68) = (  0.8875542  0.4407755  0.0000000  )
        69           N   tau(  69) = (  0.8806809  0.6043971  0.0000000  )
        70           N   tau(  70) = (  0.8810942  0.7703206  0.0000000  )
        71           N   tau(  71) = (  0.8864891  0.9403267  0.0000000  )

     number of k points=     4  Marzari-Vanderbilt smearing, width (Ry)=  0.0010
                       cart. coord. in units 2pi/alat
        k(    1) = (   0.0000000   0.0000000   0.0000000), wk =   0.2500000
        k(    2) = (   0.0000000  -0.5773503   0.0000000), wk =   0.2500000
        k(    3) = (   0.5000000  -0.2886751   0.0000000), wk =   0.2500000
        k(    4) = (  -0.5000000  -0.2886751   0.0000000), wk =   0.2500000

                       cryst. coord.
        k(    1) = (   0.0000000   0.0000000   0.0000000), wk =   0.2500000
        k(    2) = (   0.0000000  -0.5000000   0.0000000), wk =   0.2500000
        k(    3) = (   0.5000000  -0.5000000   0.0000000), wk =   0.2500000
        k(    4) = (  -0.5000000   0.0000000   0.0000000), wk =   0.2500000

     Dense  grid:  1733155 G-vectors     FFT dimensions: ( 160, 160, 180)

     Estimated max dynamical RAM per process >     526.66MB

     Estimated total allocated dynamical RAM >   50559.84MB
     Generating pointlists ...
     new r_m :   0.0391 (alat units)  1.1112 (a.u.) for type    1
     new r_m :   0.0378 (alat units)  1.0760 (a.u.) for type    2

     The potential is recalculated from file :
     ./out/bn.save/charge-density.dat

     Starting wfc are  284 randomized atomic wfcs +  286 random wfc

     Band Structure Calculation
     Davidson diagonalization with overlap

     Computing kpt #:     1
     total cpu time spent up to now is      405.0 secs

     Computing kpt #:     2
     total cpu time spent up to now is      728.6 secs

     ethr =  3.51E-12,  avg # of iterations = 81.4

     total cpu time spent up to now is      728.6 secs

     End of band structure calculation

 ------ SPIN UP ------------


          k = 0.0000 0.0000 0.0000 (216681 PWs)   bands (ev):

   -23.6658 -21.2286 -20.8673 -20.8116 -20.7247 -20.7039 -20.6985 -20.2097
   -20.1013 -19.8245 -19.7725 -19.6854 -19.6556 -19.5417 -19.4944 -19.3951
   -19.2912 -19.2873 -19.1065 -18.7482 -18.5445 -18.4274 -18.3611 -18.3460
   -18.3275 -18.3099 -18.3041 -18.2753 -18.2606 -18.2194 -18.1479 -18.1003
   -18.0779 -17.7365 -17.5909 -15.1299 -12.6418 -12.5616 -12.4073 -12.2562
   -12.0732 -11.8364 -11.8113 -11.7528 -11.7305 -11.7009 -11.6934 -11.6294
   -11.6185 -11.5621 -11.4687 -11.3777 -11.1476 -10.8384 -10.8112 -10.6984
   -10.6638 -10.5284 -10.4181 -10.3084  -9.8141  -9.7483  -9.4128  -9.2998
    -9.1654  -9.1552  -9.1529  -9.1412  -9.0811  -9.0513  -9.0294  -8.9939
    -8.9887  -8.9671  -8.9226  -8.8803  -8.8408  -8.6707  -8.5114  -8.4183
    -8.2360  -8.2050  -8.1752  -8.1374  -8.0808  -8.0515  -7.7774  -7.7563
    -7.7141  -7.6921  -7.5899  -7.5485  -7.5372  -7.5090  -7.4671  -7.4212
    -7.2747  -7.2692  -7.2166  -7.2015  -7.0478  -7.0335  -7.0065  -6.9549
    -6.9427  -6.8739  -6.8392  -6.8316  -6.7384  -6.6707  -6.4262  -6.3412
    -6.3389  -6.2781  -6.2689  -6.1960  -6.1567  -6.0622  -5.9226  -5.9165
    -5.8533  -5.8112  -5.4442  -5.2138  -5.1012  -5.0784  -5.0119  -4.8200
    -4.7772  -4.7541  -4.7534  -4.7378  -4.7354  -4.6817  -4.6799  -4.6131
    -4.6124  -4.5180  -4.5087  -3.8569  -3.6846  -2.9997  -1.8364   0.1974
     1.0063   1.0388   1.0559   1.1656   1.1706   1.3893   1.6780   1.7048
     1.7228   1.7839   1.7876   1.7929   1.8082   1.8098   1.8922   1.8946
     1.9143   1.9146   1.9209   1.9362   1.9889   2.1024   2.2448   2.3356
     2.4999   2.7919   2.7972   2.8059   2.8222   2.8321   2.8843   3.1804
     3.3000   3.3113   3.3487   3.3519   3.3664   3.3716   3.3739   3.3816
     3.4056   3.5223   3.5451   3.6369   3.6370   3.6487   3.6682   3.6704
     3.7376   3.9232   3.9263   3.9590   3.9761   4.0613   4.1420   4.1573
     4.2048   4.3488   4.3979   4.4184   4.5246   4.5982   4.6207   4.6313
     4.6741   4.8049   4.8077   4.8158   4.8309   4.8388   5.0472   5.1348
     5.1348   5.1370   5.1464   5.1613   5.1686   5.2005   5.2562   5.2622
     5.2826   5.3543   5.4414   5.4929   5.4948   5.5182   5.5398   5.6063
     5.6880   5.7312   5.7423   5.7438   5.7491   5.7703   5.8131   5.9283
     5.9312   5.9498   5.9521   5.9694   5.9896   6.0761   6.2643   6.3321
     6.5564   6.5992   6.7289   6.7584   6.7700   6.8125   6.8131   6.8398
     6.8550   6.8631   6.8668   6.9151   6.9210   6.9590   6.9673   6.9937
     7.0091   7.0402   7.0421   7.0436   7.0438   7.0546   7.0748   7.0769
     7.1012   7.1171   7.1423   7.1455   7.1557   7.1781   7.1952   7.2152
     7.2286   7.2290   7.2367   7.3303   7.4490   7.4706   7.5607   7.6093
     7.6578   7.6891   7.6929   7.7571   7.7606   7.7678   7.7724   7.7786
     7.7826   7.9463   7.9994   8.0231   8.0274   8.0328   8.0350   8.0424
     8.0452   8.0616   8.0636   8.0706   8.0926   8.1118   8.1176   8.1243
     8.2442   8.3715   8.3803   8.3940   8.4200   8.4295   8.4546   8.4568
     8.4761   8.4779   8.4861   8.4967   8.4974   8.5158   8.5364   8.5446
     8.5720   8.6664   8.6789   8.7203   8.7493   8.7784   8.7940   8.8077
     8.8395   8.8436   8.8633   8.8763   8.8930   8.8942   8.9379   8.9597
     8.9930   8.9931   9.0084   9.0244   9.0289   9.0349   9.0567   9.0580
     9.1039   9.1492   9.1501   9.1676   9.1805   9.1876   9.2100   9.2115
     9.2245   9.2336   9.2726   9.2736   9.3086   9.4396   9.4968   9.5078
     9.5344   9.5608   9.5738   9.6044   9.7537   9.7702   9.8498   9.8797
     9.8900   9.8972   9.9041   9.9045   9.9106   9.9122   9.9131   9.9214
     9.9359   9.9392   9.9760  10.0045  10.0252  10.0526  10.0536  10.0821
    10.0909  10.1261  10.1395  10.2099  10.2333  10.3040  10.3122  10.3180
    10.3270  10.3502  10.3601  10.3628  10.4113  10.4117  10.4362  10.5007
    10.5180  10.5293  10.5608  10.5920  10.7097  10.7205  10.7465  10.7490
    10.7552  10.7769  10.7882  10.8076  10.8228  10.9156  10.9376  10.9503
    11.0306  11.0542  11.0574  11.0681  11.0692  11.0858  11.1103  11.1819
    11.3962  11.4679  11.4892  11.5071  11.5218  11.5325  11.5420  11.5520
    11.5778  11.5787  11.6110  11.6480  11.6494  11.6502  11.6630  11.6640
    11.6804  11.6852  11.6873  11.7016  11.7123  11.7325  11.7341  11.7399
    11.7491  11.7595  11.7723  11.8144  11.8208  11.8278  11.8370  11.8579
    11.8703  11.8893  11.8949  11.9037  11.9144  11.9238  11.9405  11.9537
    11.9817  11.9844  12.0983  12.1499  12.1643  12.1864  12.1899  12.2273
    12.2456  12.3050  12.3134  12.3626  12.5395  12.6229  12.6741  12.6883
    12.7157  12.7757  12.7881  12.7927  12.8232  12.8317  12.9598  12.9673
    12.9757  13.1033  13.1037  13.2172  13.2906  13.2968  13.3024  13.4746
    13.4826  13.5042  13.5079  13.5117  13.5332  13.5352  13.5475  13.5531
    13.5583  13.5650  13.5651  13.5689  13.5712  13.5772  13.5879  13.5947
    13.5987  13.5994  13.6162  13.6178  13.6436  13.6491  13.6579  13.6725
    13.6756  13.6823  13.6880  13.6911  13.6975  13.7054  13.7718  13.8942
    13.9093  13.9401  13.9849  13.9929  14.1551  14.1715  14.1913  14.2029
    14.2123  14.2216  14.2485  14.2600  14.2717  14.2765  14.2918  14.2946
    14.3069  14.3110  14.3142  14.3190  14.3250  14.3270  14.3343  14.3409
    14.3588  14.3648  14.3721  14.4043  14.4266  14.4377  14.4404  14.4825
    14.4932  14.5118

     occupation numbers 
     1.0000   1.0000   1.0000   1.0000   1.0000   1.0000   1.0000   1.0000
     1.0000   1.0000   1.0000   1.0000   1.0000   1.0000   1.0000   1.0000
     1.0000   1.0000   1.0000   1.0000   1.0000   1.0000   1.0000   1.0000
     1.0000   1.0000   1.0000   1.0000   1.0000   1.0000   1.0000   1.0000
     1.0000   1.0000   1.0000   1.0000   1.0000   1.0000   1.0000   1.0000
     1.0000   1.0000   1.0000   1.0000   1.0000   1.0000   1.0000   1.0000
     1.0000   1.0000   1.0000   1.0000   1.0000   1.0000   1.0000   1.0000
     1.0000   1.0000   1.0000   1.0000   1.0000   1.0000   1.0000   1.0000
     1.0000   1.0000   1.0000   1.0000   1.0000   1.0000   1.0000   1.0000
     1.0000   1.0000   1.0000   1.0000   1.0000   1.0000   1.0000   1.0000
     1.0000   1.0000   1.0000   1.0000   1.0000   1.0000   1.0000   1.0000
     1.0000   1.0000   1.0000   1.0000   1.0000   1.0000   1.0000   1.0000
     1.0000   1.0000   1.0000   1.0000   1.0000   1.0000   1.0000   1.0000
     1.0000   1.0000   1.0000   1.0000   1.0000   1.0000   1.0000   1.0000
     1.0000   1.0000   1.0000   1.0000   1.0000   1.0000   1.0000   1.0000
     1.0000   1.0000   1.0000   1.0000   1.0000   1.0000   1.0000   1.0000
     1.0000   1.0000   1.0000   1.0000   1.0000   1.0000   1.0000   1.0000
     1.0000   1.0000   1.0000   1.0000   1.0000   1.0000   1.0000   0.0000
     0.0000   0.0000   0.0000   0.0000   0.0000   0.0000   0.0000   0.0000
     0.0000   0.0000   0.0000   0.0000   0.0000   0.0000   0.0000   0.0000
     0.0000   0.0000   0.0000   0.0000   0.0000   0.0000   0.0000   0.0000
     0.0000   0.0000   0.0000   0.0000   0.0000   0.0000   0.0000   0.0000
     0.0000   0.0000   0.0000   0.0000   0.0000   0.0000   0.0000   0.0000
     0.0000   0.0000   0.0000   0.0000   0.0000   0.0000   0.0000   0.0000
     0.0000   0.0000   0.0000   0.0000   0.0000   0.0000   0.0000   0.0000
     0.0000   0.0000   0.0000   0.0000   0.0000   0.0000   0.0000   0.0000
     0.0000   0.0000   0.0000   0.0000   0.0000   0.0000   0.0000   0.0000
     0.0000   0.0000   0.0000   0.0000   0.0000   0.0000   0.0000   0.0000
     0.0000   0.0000   0.0000   0.0000   0.0000   0.0000   0.0000   0.0000
     0.0000   0.0000   0.0000   0.0000   0.0000   0.0000   0.0000   0.0000
     0.0000   0.0000   0.0000   0.0000   0.0000   0.0000   0.0000   0.0000
     0.0000   0.0000   0.0000   0.0000   0.0000   0.0000   0.0000   0.0000
     0.0000   0.0000   0.0000   0.0000   0.0000   0.0000   0.0000   0.0000
     0.0000   0.0000   0.0000   0.0000   0.0000   0.0000   0.0000   0.0000
     0.0000   0.0000   0.0000   0.0000   0.0000   0.0000   0.0000   0.0000
     0.0000   0.0000   0.0000   0.0000   0.0000   0.0000   0.0000   0.0000
     0.0000   0.0000   0.0000   0.0000   0.0000   0.0000   0.0000   0.0000
     0.0000   0.0000   0.0000   0.0000   0.0000   0.0000   0.0000   0.0000
     0.0000   0.0000   0.0000   0.0000   0.0000   0.0000   0.0000   0.0000
     0.0000   0.0000   0.0000   0.0000   0.0000   0.0000   0.0000   0.0000
     0.0000   0.0000   0.0000   0.0000   0.0000   0.0000   0.0000   0.0000
     0.0000   0.0000   0.0000   0.0000   0.0000   0.0000   0.0000   0.0000
     0.0000   0.0000   0.0000   0.0000   0.0000   0.0000   0.0000   0.0000
     0.0000   0.0000   0.0000   0.0000   0.0000   0.0000   0.0000   0.0000
     0.0000   0.0000   0.0000   0.0000   0.0000   0.0000   0.0000   0.0000
     0.0000   0.0000   0.0000   0.0000   0.0000   0.0000   0.0000   0.0000
     0.0000   0.0000   0.0000   0.0000   0.0000   0.0000   0.0000   0.0000
     0.0000   0.0000   0.0000   0.0000   0.0000   0.0000   0.0000   0.0000
     0.0000   0.0000   0.0000   0.0000   0.0000   0.0000   0.0000   0.0000
     0.0000   0.0000   0.0000   0.0000   0.0000   0.0000   0.0000   0.0000
     0.0000   0.0000   0.0000   0.0000   0.0000   0.0000   0.0000   0.0000
     0.0000   0.0000   0.0000   0.0000   0.0000   0.0000   0.0000   0.0000
     0.0000   0.0000   0.0000   0.0000   0.0000   0.0000   0.0000   0.0000
     0.0000   0.0000   0.0000   0.0000   0.0000   0.0000   0.0000   0.0000
     0.0000   0.0000   0.0000   0.0000   0.0000   0.0000   0.0000   0.0000
     0.0000   0.0000   0.0000   0.0000   0.0000   0.0000   0.0000   0.0000
     0.0000   0.0000   0.0000   0.0000   0.0000   0.0000   0.0000   0.0000
     0.0000   0.0000   0.0000   0.0000   0.0000   0.0000   0.0000   0.0000
     0.0000   0.0000   0.0000   0.0000   0.0000   0.0000   0.0000   0.0000
     0.0000   0.0000   0.0000   0.0000   0.0000   0.0000   0.0000   0.0000
     0.0000   0.0000   0.0000   0.0000   0.0000   0.0000   0.0000   0.0000
     0.0000   0.0000   0.0000   0.0000   0.0000   0.0000   0.0000   0.0000
     0.0000   0.0000   0.0000   0.0000   0.0000   0.0000   0.0000   0.0000
     0.0000   0.0000   0.0000   0.0000   0.0000   0.0000   0.0000   0.0000
     0.0000   0.0000   0.0000   0.0000   0.0000   0.0000   0.0000   0.0000
     0.0000   0.0000   0.0000   0.0000   0.0000   0.0000   0.0000   0.0000
     0.0000   0.0000   0.0000   0.0000   0.0000   0.0000   0.0000   0.0000
     0.0000   0.0000   0.0000   0.0000   0.0000   0.0000   0.0000   0.0000
     0.0000   0.0000   0.0000   0.0000   0.0000   0.0000   0.0000   0.0000
     0.0000   0.0000   0.0000   0.0000   0.0000   0.0000   0.0000   0.0000
     0.0000   0.0000   0.0000   0.0000   0.0000   0.0000   0.0000   0.0000
     0.0000   0.0000

          k = 0.0000-0.5774 0.0000 (216604 PWs)   bands (ev):

   -23.6658 -21.1523 -21.0995 -20.8603 -20.6855 -20.5183 -20.3876 -20.2989
   -20.2182 -20.1950 -19.8755 -19.7213 -19.6449 -19.5584 -19.3275 -19.1571
   -19.0650 -19.0268 -18.9408 -18.8966 -18.8221 -18.7018 -18.6497 -18.5880
   -18.3849 -18.3180 -18.2742 -18.2566 -18.1478 -18.0796 -18.0106 -17.9469
   -17.8493 -17.8130 -17.6995 -15.1308 -12.5248 -12.4524 -12.3474 -12.2454
   -12.2186 -12.1306 -12.0602 -12.0044 -11.8797 -11.7577 -11.6469 -11.5964
   -11.4570 -11.3193 -11.2403 -11.1689 -11.1456 -10.9503 -10.6654 -10.5908
   -10.3873 -10.3669 -10.2601 -10.1784 -10.0377  -9.9649  -9.8202  -9.7197
    -9.5972  -9.5855  -9.4181  -9.2263  -9.1428  -9.0513  -8.9604  -8.7599
    -8.7214  -8.6824  -8.5489  -8.5261  -8.4580  -8.4000  -8.3414  -8.2877
    -8.2676  -8.2168  -8.1384  -8.0810  -8.0578  -7.9851  -7.9525  -7.9479
    -7.9224  -7.7949  -7.7092  -7.7082  -7.6495  -7.5877  -7.5508  -7.5490
    -7.4816  -7.3844  -7.3646  -7.3164  -7.2860  -7.1426  -6.8938  -6.8746
    -6.7602  -6.7332  -6.6758  -6.6651  -6.5930  -6.5684  -6.5208  -6.5020
    -6.3776  -6.1556  -5.9985  -5.8948  -5.8807  -5.8005  -5.7938  -5.7376
    -5.6692  -5.6413  -5.5943  -5.5904  -5.5055  -5.3480  -5.2527  -5.2170
    -5.1635  -5.1340  -4.8428  -4.7456  -4.6887  -4.6238  -4.5414  -4.4059
    -4.2603  -4.1460  -4.0521  -3.9864  -3.9542  -3.0125  -1.8408   0.2067
     1.1359   1.1639   1.2115   1.2415   1.2447   1.2672   1.2893   1.3110
     1.3465   1.4249   1.5317   1.7015   1.7674   1.8301   1.8590   2.0846
     2.1312   2.1912   2.2186   2.4027   2.5139   2.5434   2.5623   2.5832
     2.6063   2.6215   2.6372   2.6664   2.7083   2.7376   2.7974   2.9570
     3.0316   3.0397   3.0805   3.1556   3.1767   3.2219   3.3160   3.3855
     3.3916   3.4301   3.5308   3.7152   3.7326   3.7511   3.8109   3.8163
     3.8235   3.8416   3.9041   3.9435   4.0046   4.0358   4.0419   4.0617
     4.2300   4.2387   4.2633   4.4524   4.4785   4.5145   4.5555   4.6446
     4.8074   4.8660   4.8878   5.1062   5.1210   5.1471   5.1710   5.1907
     5.2068   5.2137   5.2279   5.2655   5.2924   5.3042   5.3063   5.3068
     5.3177   5.3334   5.3358   5.3452   5.3488   5.3658   5.3693   5.4363
     5.4646   5.5357   5.7505   5.9189   6.0646   6.1192   6.1381   6.1563
     6.1742   6.1987   6.2798   6.2981   6.3057   6.3176   6.3478   6.4304
     6.5391   6.5688   6.5910   6.6336   6.6590   6.6623   6.6714   6.6729
     6.6840   6.6965   6.7065   6.7127   6.7156   6.7378   6.7708   6.7765
     6.8108   6.8232   6.8308   6.8669   6.9371   6.9739   7.0020   7.0095
     7.0396   7.1128   7.1447   7.1820   7.1859   7.1915   7.2087   7.2133
     7.2311   7.2468   7.2577   7.2779   7.3316   7.4042   7.4571   7.5039
     7.5162   7.5473   7.5628   7.6066   7.6994   7.7177   7.7698   7.7888
     7.8268   7.8418   7.8565   7.8882   7.9382   7.9664   8.0083   8.0401
     8.0726   8.0923   8.1053   8.1196   8.1402   8.1421   8.1717   8.1877
     8.2245   8.2635   8.2710   8.3142   8.3197   8.3279   8.3385   8.3762
     8.4012   8.4124   8.4395   8.4556   8.5184   8.5356   8.5505   8.5700
     8.6146   8.6222   8.6437   8.6516   8.6968   8.7098   8.7279   8.7391
     8.7486   8.7583   8.7650   8.8371   8.8470   8.8505   8.9135   8.9427
     9.0198   9.0846   9.1728   9.1848   9.2385   9.2524   9.2917   9.3251
     9.3465   9.3532   9.3660   9.3742   9.3760   9.3820   9.3837   9.3993
     9.4332   9.4346   9.4403   9.4606   9.4699   9.4738   9.4947   9.5004
     9.5068   9.5113   9.5135   9.5281   9.5524   9.5750   9.6119   9.6611
     9.6830   9.6990   9.7417   9.8021   9.8458   9.8933  10.0056  10.0355
    10.0741  10.1029  10.1354  10.1794  10.1983  10.2075  10.2343  10.2936
    10.3477  10.3611  10.3644  10.3819  10.4372  10.4635  10.4761  10.4794
    10.4835  10.4931  10.5016  10.5125  10.5263  10.5809  10.6008  10.6052
    10.6202  10.6392  10.6540  10.6633  10.6937  10.7057  10.7179  10.7382
    10.7539  10.7561  10.7987  10.8167  10.8425  10.9243  10.9512  10.9611
    10.9867  11.0147  11.0377  11.1461  11.1627  11.1933  11.2095  11.2204
    11.2235  11.2585  11.3136  11.3331  11.3448  11.3494  11.3581  11.3672
    11.3900  11.4068  11.4291  11.4337  11.4751  11.4857  11.5066  11.5264
    11.5402  11.5462  11.5620  11.5949  11.6120  11.6214  11.6394  11.6413
    11.6849  11.6910  11.7179  11.7787  11.7824  11.8074  11.8474  11.8679
    11.9835  11.9966  12.0027  12.0123  12.0662  12.1044  12.1249  12.1345
    12.1792  12.2034  12.2829  12.3703  12.3821  12.3973  12.4051  12.4083
    12.4239  12.5846  12.6071  12.6311  12.6721  12.6815  12.7118  12.7195
    12.7208  12.7561  12.7949  12.8080  12.8150  12.8372  12.8580  12.8860
    12.8943  12.9161  12.9560  13.0114  13.0306  13.0640  13.0844  13.0877
    13.1073  13.1180  13.1332  13.1681  13.1810  13.2048  13.2369  13.2394
    13.2470  13.2490  13.2517  13.2587  13.2672  13.2886  13.3297  13.3398
    13.3760  13.3835  13.4031  13.4073  13.4236  13.4460  13.4644  13.5354
    13.5649  13.5891  13.6102  13.6347  13.6864  13.6898  13.6986  13.7292
    13.7702  13.7817  13.7928  13.8190  13.8233  13.8257  13.8713  13.8981
    13.9128  13.9310  13.9512  13.9641  13.9800  14.0161  14.0216  14.0575
    14.0825  14.0947  14.1050  14.1930  14.2194  14.2348  14.2604  14.2670
    14.3453  14.4405  14.4450  14.4789  14.4837  14.5008  14.5148  14.5267
    14.5342  14.5717

     occupation numbers 
     1.0000   1.0000   1.0000   1.0000   1.0000   1.0000   1.0000   1.0000
     1.0000   1.0000   1.0000   1.0000   1.0000   1.0000   1.0000   1.0000
     1.0000   1.0000   1.0000   1.0000   1.0000   1.0000   1.0000   1.0000
     1.0000   1.0000   1.0000   1.0000   1.0000   1.0000   1.0000   1.0000
     1.0000   1.0000   1.0000   1.0000   1.0000   1.0000   1.0000   1.0000
     1.0000   1.0000   1.0000   1.0000   1.0000   1.0000   1.0000   1.0000
     1.0000   1.0000   1.0000   1.0000   1.0000   1.0000   1.0000   1.0000
     1.0000   1.0000   1.0000   1.0000   1.0000   1.0000   1.0000   1.0000
     1.0000   1.0000   1.0000   1.0000   1.0000   1.0000   1.0000   1.0000
     1.0000   1.0000   1.0000   1.0000   1.0000   1.0000   1.0000   1.0000
     1.0000   1.0000   1.0000   1.0000   1.0000   1.0000   1.0000   1.0000
     1.0000   1.0000   1.0000   1.0000   1.0000   1.0000   1.0000   1.0000
     1.0000   1.0000   1.0000   1.0000   1.0000   1.0000   1.0000   1.0000
     1.0000   1.0000   1.0000   1.0000   1.0000   1.0000   1.0000   1.0000
     1.0000   1.0000   1.0000   1.0000   1.0000   1.0000   1.0000   1.0000
     1.0000   1.0000   1.0000   1.0000   1.0000   1.0000   1.0000   1.0000
     1.0000   1.0000   1.0000   1.0000   1.0000   1.0000   1.0000   1.0000
     1.0000   1.0000   1.0000   1.0000   1.0000   1.0000   1.0000   0.0000
     0.0000   0.0000   0.0000   0.0000   0.0000   0.0000   0.0000   0.0000
     0.0000   0.0000   0.0000   0.0000   0.0000   0.0000   0.0000   0.0000
     0.0000   0.0000   0.0000   0.0000   0.0000   0.0000   0.0000   0.0000
     0.0000   0.0000   0.0000   0.0000   0.0000   0.0000   0.0000   0.0000
     0.0000   0.0000   0.0000   0.0000   0.0000   0.0000   0.0000   0.0000
     0.0000   0.0000   0.0000   0.0000   0.0000   0.0000   0.0000   0.0000
     0.0000   0.0000   0.0000   0.0000   0.0000   0.0000   0.0000   0.0000
     0.0000   0.0000   0.0000   0.0000   0.0000   0.0000   0.0000   0.0000
     0.0000   0.0000   0.0000   0.0000   0.0000   0.0000   0.0000   0.0000
     0.0000   0.0000   0.0000   0.0000   0.0000   0.0000   0.0000   0.0000
     0.0000   0.0000   0.0000   0.0000   0.0000   0.0000   0.0000   0.0000
     0.0000   0.0000   0.0000   0.0000   0.0000   0.0000   0.0000   0.0000
     0.0000   0.0000   0.0000   0.0000   0.0000   0.0000   0.0000   0.0000
     0.0000   0.0000   0.0000   0.0000   0.0000   0.0000   0.0000   0.0000
     0.0000   0.0000   0.0000   0.0000   0.0000   0.0000   0.0000   0.0000
     0.0000   0.0000   0.0000   0.0000   0.0000   0.0000   0.0000   0.0000
     0.0000   0.0000   0.0000   0.0000   0.0000   0.0000   0.0000   0.0000
     0.0000   0.0000   0.0000   0.0000   0.0000   0.0000   0.0000   0.0000
     0.0000   0.0000   0.0000   0.0000   0.0000   0.0000   0.0000   0.0000
     0.0000   0.0000   0.0000   0.0000   0.0000   0.0000   0.0000   0.0000
     0.0000   0.0000   0.0000   0.0000   0.0000   0.0000   0.0000   0.0000
     0.0000   0.0000   0.0000   0.0000   0.0000   0.0000   0.0000   0.0000
     0.0000   0.0000   0.0000   0.0000   0.0000   0.0000   0.0000   0.0000
     0.0000   0.0000   0.0000   0.0000   0.0000   0.0000   0.0000   0.0000
     0.0000   0.0000   0.0000   0.0000   0.0000   0.0000   0.0000   0.0000
     0.0000   0.0000   0.0000   0.0000   0.0000   0.0000   0.0000   0.0000
     0.0000   0.0000   0.0000   0.0000   0.0000   0.0000   0.0000   0.0000
     0.0000   0.0000   0.0000   0.0000   0.0000   0.0000   0.0000   0.0000
     0.0000   0.0000   0.0000   0.0000   0.0000   0.0000   0.0000   0.0000
     0.0000   0.0000   0.0000   0.0000   0.0000   0.0000   0.0000   0.0000
     0.0000   0.0000   0.0000   0.0000   0.0000   0.0000   0.0000   0.0000
     0.0000   0.0000   0.0000   0.0000   0.0000   0.0000   0.0000   0.0000
     0.0000   0.0000   0.0000   0.0000   0.0000   0.0000   0.0000   0.0000
     0.0000   0.0000   0.0000   0.0000   0.0000   0.0000   0.0000   0.0000
     0.0000   0.0000   0.0000   0.0000   0.0000   0.0000   0.0000   0.0000
     0.0000   0.0000   0.0000   0.0000   0.0000   0.0000   0.0000   0.0000
     0.0000   0.0000   0.0000   0.0000   0.0000   0.0000   0.0000   0.0000
     0.0000   0.0000   0.0000   0.0000   0.0000   0.0000   0.0000   0.0000
     0.0000   0.0000   0.0000   0.0000   0.0000   0.0000   0.0000   0.0000
     0.0000   0.0000   0.0000   0.0000   0.0000   0.0000   0.0000   0.0000
     0.0000   0.0000   0.0000   0.0000   0.0000   0.0000   0.0000   0.0000
     0.0000   0.0000   0.0000   0.0000   0.0000   0.0000   0.0000   0.0000
     0.0000   0.0000   0.0000   0.0000   0.0000   0.0000   0.0000   0.0000
     0.0000   0.0000   0.0000   0.0000   0.0000   0.0000   0.0000   0.0000
     0.0000   0.0000   0.0000   0.0000   0.0000   0.0000   0.0000   0.0000
     0.0000   0.0000   0.0000   0.0000   0.0000   0.0000   0.0000   0.0000
     0.0000   0.0000   0.0000   0.0000   0.0000   0.0000   0.0000   0.0000
     0.0000   0.0000   0.0000   0.0000   0.0000   0.0000   0.0000   0.0000
     0.0000   0.0000   0.0000   0.0000   0.0000   0.0000   0.0000   0.0000
     0.0000   0.0000   0.0000   0.0000   0.0000   0.0000   0.0000   0.0000
     0.0000   0.0000   0.0000   0.0000   0.0000   0.0000   0.0000   0.0000
     0.0000   0.0000   0.0000   0.0000   0.0000   0.0000   0.0000   0.0000
     0.0000   0.0000   0.0000   0.0000   0.0000   0.0000   0.0000   0.0000
     0.0000   0.0000

          k = 0.5000-0.2887 0.0000 (216604 PWs)   bands (ev):

   -23.6658 -21.1882 -20.9786 -20.9269 -20.7842 -20.5026 -20.3508 -20.3034
   -20.1850 -19.9987 -19.9458 -19.8043 -19.6983 -19.6759 -19.2861 -19.1989
   -18.9974 -18.9303 -18.9292 -18.9033 -18.7715 -18.7532 -18.6105 -18.5350
   -18.4127 -18.3537 -18.3021 -18.2750 -18.2327 -18.1163 -17.9443 -17.8883
   -17.8711 -17.8406 -17.6784 -15.1267 -12.5094 -12.4782 -12.3624 -12.3098
   -12.1613 -12.0701 -11.9532 -11.9468 -11.8726 -11.8097 -11.7231 -11.6937
   -11.4709 -11.4381 -11.2808 -11.1867 -10.9962 -10.9798 -10.6872 -10.4882
   -10.4716 -10.2875 -10.1964 -10.0918 -10.0393  -9.9202  -9.8209  -9.7410
    -9.6574  -9.5040  -9.4619  -9.2729  -9.1705  -9.1462  -9.0126  -8.7960
    -8.6839  -8.6433  -8.5578  -8.4979  -8.4626  -8.4580  -8.3441  -8.3019
    -8.2802  -8.2091  -8.1375  -8.0362  -8.0117  -7.9537  -7.9504  -7.8807
    -7.8528  -7.8255  -7.8197  -7.7544  -7.6960  -7.5906  -7.5851  -7.5733
    -7.4877  -7.4009  -7.2955  -7.1632  -7.1518  -6.9980  -6.8963  -6.8331
    -6.8263  -6.8032  -6.7247  -6.7026  -6.6843  -6.6298  -6.6297  -6.5194
    -6.4779  -6.1765  -6.0862  -5.8132  -5.7573  -5.7328  -5.7299  -5.6729
    -5.6272  -5.6134  -5.6128  -5.5616  -5.4848  -5.3869  -5.3490  -5.2177
    -5.1779  -4.9197  -4.9157  -4.7834  -4.7238  -4.6651  -4.5733  -4.5138
    -4.1774  -4.0971  -4.0426  -4.0355  -3.9381  -3.0294  -1.8251   0.1799
     1.1318   1.1450   1.1951   1.2401   1.2420   1.2516   1.3054   1.3256
     1.3910   1.4670   1.5605   1.6908   1.7110   1.7581   1.9167   2.0944
     2.1493   2.1841   2.2542   2.4390   2.5141   2.5461   2.5682   2.5826
     2.5909   2.6078   2.6418   2.7088   2.7148   2.7420   2.7547   2.9372
     2.9976   3.0223   3.0846   3.1391   3.1477   3.1767   3.3552   3.3874
     3.3931   3.3980   3.5278   3.6858   3.7060   3.7165   3.7934   3.8134
     3.8386   3.8748   3.9196   4.0183   4.0380   4.0385   4.0638   4.0997
     4.2274   4.2585   4.3307   4.4021   4.4669   4.5053   4.5342   4.6493
     4.8136   4.8469   4.8768   5.1108   5.1220   5.1545   5.1647   5.1673
     5.1993   5.2212   5.2254   5.2450   5.2638   5.3032   5.3218   5.3222
     5.3261   5.3314   5.3355   5.3560   5.3564   5.3718   5.4162   5.4246
     5.4999   5.5213   5.6333   5.7774   6.1162   6.1280   6.1314   6.1599
     6.1734   6.2503   6.2517   6.3002   6.3020   6.3089   6.4105   6.4161
     6.5824   6.5872   6.6059   6.6476   6.6508   6.6630   6.6737   6.6868
     6.6980   6.7016   6.7132   6.7262   6.7312   6.7531   6.7549   6.7802
     6.7900   6.8554   6.8599   6.8823   6.9785   6.9870   7.0524   7.0722
     7.0893   7.1165   7.1560   7.1670   7.1926   7.1932   7.2005   7.2007
     7.2230   7.2404   7.2560   7.2677   7.2761   7.3519   7.4658   7.4781
     7.5111   7.5348   7.5698   7.5808   7.6161   7.7196   7.7596   7.7774
     7.7874   7.8199   7.8233   7.8964   7.9346   7.9736   8.0073   8.0185
     8.0566   8.0941   8.1326   8.1341   8.1545   8.1650   8.1667   8.2161
     8.2392   8.2612   8.2742   8.3147   8.3218   8.3252   8.3331   8.3666
     8.3751   8.4050   8.4165   8.4182   8.4482   8.5041   8.5325   8.6121
     8.6152   8.6378   8.6748   8.7001   8.7066   8.7112   8.7217   8.7253
     8.7415   8.7418   8.7593   8.8341   8.8769   8.9220   8.9248   8.9660
     9.0543   9.0673   9.1242   9.1639   9.2069   9.2300   9.2318   9.2663
     9.3059   9.3407   9.3616   9.3631   9.3687   9.3712   9.3806   9.3895
     9.4004   9.4332   9.4564   9.4616   9.4674   9.4726   9.4762   9.4816
     9.4993   9.5102   9.5107   9.5445   9.5534   9.5657   9.6371   9.6487
     9.6772   9.6963   9.7841   9.8240   9.8685   9.9585  10.0142  10.0209
    10.0520  10.0902  10.1805  10.1886  10.2299  10.2324  10.2828  10.2871
    10.3548  10.3606  10.3962  10.4069  10.4489  10.4829  10.4914  10.4923
    10.5091  10.5103  10.5109  10.5172  10.5318  10.5470  10.5637  10.6258
    10.6293  10.6454  10.6579  10.6850  10.6896  10.6943  10.7106  10.7468
    10.7481  10.7531  10.7714  10.7830  10.8299  10.8402  10.8935  10.9617
    11.0300  11.0356  11.0913  11.1146  11.1859  11.1883  11.2040  11.2077
    11.2641  11.3115  11.3299  11.3338  11.3388  11.3482  11.3602  11.3705
    11.3757  11.3863  11.4356  11.4359  11.4465  11.4694  11.4814  11.5217
    11.5244  11.5427  11.5455  11.5586  11.5957  11.6233  11.6248  11.6351
    11.7151  11.7346  11.7592  11.7742  11.7938  11.8068  11.8601  11.8810
    11.9809  11.9821  11.9845  11.9901  11.9945  12.0524  12.0783  12.0987
    12.1324  12.1875  12.3590  12.3933  12.4032  12.4051  12.4165  12.5593
    12.6334  12.6611  12.6679  12.7071  12.7104  12.7258  12.7273  12.7548
    12.7574  12.7892  12.8289  12.8612  12.8661  12.8665  12.8689  12.8978
    12.8985  12.9218  12.9432  12.9825  13.0148  13.0467  13.0562  13.0845
    13.0925  13.1000  13.1300  13.1600  13.1672  13.2038  13.2084  13.2290
    13.2326  13.2347  13.2368  13.2410  13.2579  13.2811  13.2879  13.3463
    13.3738  13.3739  13.3939  13.4075  13.4273  13.4475  13.4536  13.4734
    13.5848  13.5959  13.5971  13.6001  13.6081  13.7085  13.7419  13.7450
    13.7498  13.7581  13.7835  13.7954  13.8025  13.8342  13.8393  13.8661
    13.8677  13.9129  13.9376  13.9492  13.9528  13.9676  13.9885  14.0293
    14.0360  14.0502  14.0521  14.0980  14.1980  14.2173  14.2320  14.2533
    14.3658  14.3926  14.4258  14.4490  14.4716  14.4871  14.4978  14.5224
    14.5410  14.5724

     occupation numbers 
     1.0000   1.0000   1.0000   1.0000   1.0000   1.0000   1.0000   1.0000
     1.0000   1.0000   1.0000   1.0000   1.0000   1.0000   1.0000   1.0000
     1.0000   1.0000   1.0000   1.0000   1.0000   1.0000   1.0000   1.0000
     1.0000   1.0000   1.0000   1.0000   1.0000   1.0000   1.0000   1.0000
     1.0000   1.0000   1.0000   1.0000   1.0000   1.0000   1.0000   1.0000
     1.0000   1.0000   1.0000   1.0000   1.0000   1.0000   1.0000   1.0000
     1.0000   1.0000   1.0000   1.0000   1.0000   1.0000   1.0000   1.0000
     1.0000   1.0000   1.0000   1.0000   1.0000   1.0000   1.0000   1.0000
     1.0000   1.0000   1.0000   1.0000   1.0000   1.0000   1.0000   1.0000
     1.0000   1.0000   1.0000   1.0000   1.0000   1.0000   1.0000   1.0000
     1.0000   1.0000   1.0000   1.0000   1.0000   1.0000   1.0000   1.0000
     1.0000   1.0000   1.0000   1.0000   1.0000   1.0000   1.0000   1.0000
     1.0000   1.0000   1.0000   1.0000   1.0000   1.0000   1.0000   1.0000
     1.0000   1.0000   1.0000   1.0000   1.0000   1.0000   1.0000   1.0000
     1.0000   1.0000   1.0000   1.0000   1.0000   1.0000   1.0000   1.0000
     1.0000   1.0000   1.0000   1.0000   1.0000   1.0000   1.0000   1.0000
     1.0000   1.0000   1.0000   1.0000   1.0000   1.0000   1.0000   1.0000
     1.0000   1.0000   1.0000   1.0000   1.0000   1.0000   1.0000   0.0000
     0.0000   0.0000   0.0000   0.0000   0.0000   0.0000   0.0000   0.0000
     0.0000   0.0000   0.0000   0.0000   0.0000   0.0000   0.0000   0.0000
     0.0000   0.0000   0.0000   0.0000   0.0000   0.0000   0.0000   0.0000
     0.0000   0.0000   0.0000   0.0000   0.0000   0.0000   0.0000   0.0000
     0.0000   0.0000   0.0000   0.0000   0.0000   0.0000   0.0000   0.0000
     0.0000   0.0000   0.0000   0.0000   0.0000   0.0000   0.0000   0.0000
     0.0000   0.0000   0.0000   0.0000   0.0000   0.0000   0.0000   0.0000
     0.0000   0.0000   0.0000   0.0000   0.0000   0.0000   0.0000   0.0000
     0.0000   0.0000   0.0000   0.0000   0.0000   0.0000   0.0000   0.0000
     0.0000   0.0000   0.0000   0.0000   0.0000   0.0000   0.0000   0.0000
     0.0000   0.0000   0.0000   0.0000   0.0000   0.0000   0.0000   0.0000
     0.0000   0.0000   0.0000   0.0000   0.0000   0.0000   0.0000   0.0000
     0.0000   0.0000   0.0000   0.0000   0.0000   0.0000   0.0000   0.0000
     0.0000   0.0000   0.0000   0.0000   0.0000   0.0000   0.0000   0.0000
     0.0000   0.0000   0.0000   0.0000   0.0000   0.0000   0.0000   0.0000
     0.0000   0.0000   0.0000   0.0000   0.0000   0.0000   0.0000   0.0000
     0.0000   0.0000   0.0000   0.0000   0.0000   0.0000   0.0000   0.0000
     0.0000   0.0000   0.0000   0.0000   0.0000   0.0000   0.0000   0.0000
     0.0000   0.0000   0.0000   0.0000   0.0000   0.0000   0.0000   0.0000
     0.0000   0.0000   0.0000   0.0000   0.0000   0.0000   0.0000   0.0000
     0.0000   0.0000   0.0000   0.0000   0.0000   0.0000   0.0000   0.0000
     0.0000   0.0000   0.0000   0.0000   0.0000   0.0000   0.0000   0.0000
     0.0000   0.0000   0.0000   0.0000   0.0000   0.0000   0.0000   0.0000
     0.0000   0.0000   0.0000   0.0000   0.0000   0.0000   0.0000   0.0000
     0.0000   0.0000   0.0000   0.0000   0.0000   0.0000   0.0000   0.0000
     0.0000   0.0000   0.0000   0.0000   0.0000   0.0000   0.0000   0.0000
     0.0000   0.0000   0.0000   0.0000   0.0000   0.0000   0.0000   0.0000
     0.0000   0.0000   0.0000   0.0000   0.0000   0.0000   0.0000   0.0000
     0.0000   0.0000   0.0000   0.0000   0.0000   0.0000   0.0000   0.0000
     0.0000   0.0000   0.0000   0.0000   0.0000   0.0000   0.0000   0.0000
     0.0000   0.0000   0.0000   0.0000   0.0000   0.0000   0.0000   0.0000
     0.0000   0.0000   0.0000   0.0000   0.0000   0.0000   0.0000   0.0000
     0.0000   0.0000   0.0000   0.0000   0.0000   0.0000   0.0000   0.0000
     0.0000   0.0000   0.0000   0.0000   0.0000   0.0000   0.0000   0.0000
     0.0000   0.0000   0.0000   0.0000   0.0000   0.0000   0.0000   0.0000
     0.0000   0.0000   0.0000   0.0000   0.0000   0.0000   0.0000   0.0000
     0.0000   0.0000   0.0000   0.0000   0.0000   0.0000   0.0000   0.0000
     0.0000   0.0000   0.0000   0.0000   0.0000   0.0000   0.0000   0.0000
     0.0000   0.0000   0.0000   0.0000   0.0000   0.0000   0.0000   0.0000
     0.0000   0.0000   0.0000   0.0000   0.0000   0.0000   0.0000   0.0000
     0.0000   0.0000   0.0000   0.0000   0.0000   0.0000   0.0000   0.0000
     0.0000   0.0000   0.0000   0.0000   0.0000   0.0000   0.0000   0.0000
     0.0000   0.0000   0.0000   0.0000   0.0000   0.0000   0.0000   0.0000
     0.0000   0.0000   0.0000   0.0000   0.0000   0.0000   0.0000   0.0000
     0.0000   0.0000   0.0000   0.0000   0.0000   0.0000   0.0000   0.0000
     0.0000   0.0000   0.0000   0.0000   0.0000   0.0000   0.0000   0.0000
     0.0000   0.0000   0.0000   0.0000   0.0000   0.0000   0.0000   0.0000
     0.0000   0.0000   0.0000   0.0000   0.0000   0.0000   0.0000   0.0000
     0.0000   0.0000   0.0000   0.0000   0.0000   0.0000   0.0000   0.0000
     0.0000   0.0000   0.0000   0.0000   0.0000   0.0000   0.0000   0.0000
     0.0000   0.0000   0.0000   0.0000   0.0000   0.0000   0.0000   0.0000
     0.0000   0.0000   0.0000   0.0000   0.0000   0.0000   0.0000   0.0000
     0.0000   0.0000   0.0000   0.0000   0.0000   0.0000   0.0000   0.0000
     0.0000   0.0000

          k =-0.5000-0.2887 0.0000 (216604 PWs)   bands (ev):

   -23.6658 -21.1519 -21.1000 -20.8604 -20.6851 -20.5185 -20.3872 -20.2992
   -20.2181 -20.1955 -19.8756 -19.7215 -19.6443 -19.5583 -19.3278 -19.1569
   -19.0654 -19.0268 -18.9408 -18.8967 -18.8223 -18.7016 -18.6495 -18.5881
   -18.3848 -18.3176 -18.2745 -18.2568 -18.1476 -18.0798 -18.0106 -17.9468
   -17.8492 -17.8133 -17.6993 -15.1308 -12.5244 -12.4531 -12.3477 -12.2451
   -12.2181 -12.1312 -12.0606 -12.0040 -11.8792 -11.7578 -11.6463 -11.5960
   -11.4570 -11.3202 -11.2406 -11.1690 -11.1457 -10.9508 -10.6649 -10.5912
   -10.3874 -10.3678 -10.2589 -10.1787 -10.0366  -9.9647  -9.8193  -9.7197
    -9.5978  -9.5862  -9.4180  -9.2267  -9.1428  -9.0515  -8.9603  -8.7598
    -8.7199  -8.6823  -8.5504  -8.5265  -8.4592  -8.3998  -8.3423  -8.2875
    -8.2674  -8.2172  -8.1368  -8.0798  -8.0578  -7.9849  -7.9522  -7.9484
    -7.9225  -7.7941  -7.7106  -7.7085  -7.6490  -7.5869  -7.5512  -7.5497
    -7.4822  -7.3849  -7.3643  -7.3163  -7.2846  -7.1432  -6.8938  -6.8732
    -6.7597  -6.7339  -6.6756  -6.6646  -6.5940  -6.5689  -6.5214  -6.5018
    -6.3776  -6.1563  -5.9991  -5.8945  -5.8795  -5.8008  -5.7943  -5.7377
    -5.6674  -5.6416  -5.5948  -5.5902  -5.5055  -5.3481  -5.2538  -5.2166
    -5.1642  -5.1338  -4.8424  -4.7447  -4.6887  -4.6234  -4.5412  -4.4068
    -4.2605  -4.1458  -4.0520  -3.9867  -3.9541  -3.0125  -1.8408   0.2067
     1.1362   1.1648   1.2112   1.2416   1.2447   1.2676   1.2884   1.3110
     1.3464   1.4248   1.5309   1.7015   1.7675   1.8301   1.8597   2.0845
     2.1309   2.1912   2.2187   2.4020   2.5136   2.5434   2.5624   2.5832
     2.6063   2.6214   2.6372   2.6671   2.7082   2.7376   2.7976   2.9571
     3.0314   3.0397   3.0816   3.1556   3.1767   3.2217   3.3161   3.3856
     3.3916   3.4301   3.5312   3.7153   3.7326   3.7508   3.8109   3.8162
     3.8236   3.8403   3.9041   3.9434   4.0045   4.0358   4.0419   4.0617
     4.2299   4.2388   4.2633   4.4523   4.4785   4.5146   4.5557   4.6446
     4.8071   4.8660   4.8879   5.1064   5.1212   5.1471   5.1708   5.1910
     5.2072   5.2137   5.2283   5.2654   5.2922   5.3038   5.3061   5.3064
     5.3175   5.3334   5.3356   5.3450   5.3486   5.3661   5.3696   5.4363
     5.4654   5.5354   5.7507   5.9190   6.0650   6.1181   6.1382   6.1563
     6.1737   6.1986   6.2798   6.2981   6.3057   6.3177   6.3491   6.4301
     6.5384   6.5686   6.5908   6.6334   6.6591   6.6622   6.6712   6.6729
     6.6844   6.6966   6.7065   6.7127   6.7157   6.7380   6.7713   6.7763
     6.8113   6.8228   6.8309   6.8661   6.9374   6.9744   7.0024   7.0086
     7.0388   7.1133   7.1449   7.1818   7.1862   7.1912   7.2085   7.2132
     7.2311   7.2467   7.2583   7.2780   7.3317   7.4046   7.4582   7.5049
     7.5161   7.5475   7.5615   7.6061   7.6980   7.7174   7.7698   7.7889
     7.8270   7.8415   7.8566   7.8871   7.9403   7.9667   8.0084   8.0408
     8.0735   8.0920   8.1052   8.1200   8.1404   8.1413   8.1714   8.1877
     8.2241   8.2635   8.2710   8.3151   8.3198   8.3279   8.3385   8.3766
     8.4017   8.4120   8.4395   8.4565   8.5177   8.5359   8.5487   8.5709
     8.6146   8.6223   8.6442   8.6518   8.6969   8.7096   8.7279   8.7392
     8.7486   8.7582   8.7649   8.8369   8.8467   8.8515   8.9129   8.9428
     9.0199   9.0849   9.1729   9.1853   9.2373   9.2525   9.2915   9.3252
     9.3465   9.3535   9.3658   9.3741   9.3752   9.3820   9.3838   9.3994
     9.4325   9.4348   9.4400   9.4606   9.4701   9.4737   9.4948   9.5006
     9.5051   9.5106   9.5131   9.5282   9.5524   9.5747   9.6119   9.6608
     9.6826   9.6990   9.7415   9.8022   9.8459   9.8929  10.0053  10.0365
    10.0728  10.1021  10.1360  10.1794  10.1978  10.2072  10.2354  10.2939
    10.3473  10.3607  10.3647  10.3821  10.4374  10.4650  10.4758  10.4793
    10.4837  10.4930  10.5017  10.5124  10.5262  10.5810  10.6016  10.6051
    10.6203  10.6389  10.6540  10.6635  10.6939  10.7058  10.7180  10.7392
    10.7541  10.7561  10.7985  10.8174  10.8428  10.9252  10.9508  10.9605
    10.9865  11.0147  11.0378  11.1465  11.1631  11.1935  11.2093  11.2203
    11.2237  11.2583  11.3138  11.3331  11.3447  11.3493  11.3578  11.3670
    11.3892  11.4068  11.4298  11.4346  11.4750  11.4859  11.5055  11.5265
    11.5405  11.5455  11.5626  11.5954  11.6117  11.6212  11.6398  11.6413
    11.6847  11.6902  11.7175  11.7789  11.7824  11.8075  11.8475  11.8670
    11.9834  11.9967  12.0026  12.0121  12.0673  12.1043  12.1248  12.1369
    12.1791  12.2019  12.2818  12.3710  12.3821  12.3974  12.4050  12.4086
    12.4241  12.5850  12.6066  12.6310  12.6720  12.6808  12.7113  12.7195
    12.7208  12.7560  12.7949  12.8080  12.8150  12.8358  12.8582  12.8864
    12.8944  12.9153  12.9570  13.0114  13.0309  13.0640  13.0844  13.0882
    13.1078  13.1178  13.1329  13.1680  13.1812  13.2053  13.2366  13.2394
    13.2469  13.2490  13.2519  13.2587  13.2671  13.2887  13.3299  13.3401
    13.3760  13.3836  13.4031  13.4072  13.4237  13.4461  13.4647  13.5350
    13.5652  13.5889  13.6101  13.6345  13.6866  13.6901  13.6978  13.7291
    13.7699  13.7818  13.7928  13.8188  13.8233  13.8256  13.8712  13.8988
    13.9128  13.9311  13.9512  13.9641  13.9802  14.0162  14.0214  14.0575
    14.0827  14.0955  14.1050  14.1937  14.2193  14.2351  14.2601  14.2664
    14.3452  14.4406  14.4449  14.4790  14.4837  14.5007  14.5149  14.5268
    14.5344  14.5722

     occupation numbers 
     1.0000   1.0000   1.0000   1.0000   1.0000   1.0000   1.0000   1.0000
     1.0000   1.0000   1.0000   1.0000   1.0000   1.0000   1.0000   1.0000
     1.0000   1.0000   1.0000   1.0000   1.0000   1.0000   1.0000   1.0000
     1.0000   1.0000   1.0000   1.0000   1.0000   1.0000   1.0000   1.0000
     1.0000   1.0000   1.0000   1.0000   1.0000   1.0000   1.0000   1.0000
     1.0000   1.0000   1.0000   1.0000   1.0000   1.0000   1.0000   1.0000
     1.0000   1.0000   1.0000   1.0000   1.0000   1.0000   1.0000   1.0000
     1.0000   1.0000   1.0000   1.0000   1.0000   1.0000   1.0000   1.0000
     1.0000   1.0000   1.0000   1.0000   1.0000   1.0000   1.0000   1.0000
     1.0000   1.0000   1.0000   1.0000   1.0000   1.0000   1.0000   1.0000
     1.0000   1.0000   1.0000   1.0000   1.0000   1.0000   1.0000   1.0000
     1.0000   1.0000   1.0000   1.0000   1.0000   1.0000   1.0000   1.0000
     1.0000   1.0000   1.0000   1.0000   1.0000   1.0000   1.0000   1.0000
     1.0000   1.0000   1.0000   1.0000   1.0000   1.0000   1.0000   1.0000
     1.0000   1.0000   1.0000   1.0000   1.0000   1.0000   1.0000   1.0000
     1.0000   1.0000   1.0000   1.0000   1.0000   1.0000   1.0000   1.0000
     1.0000   1.0000   1.0000   1.0000   1.0000   1.0000   1.0000   1.0000
     1.0000   1.0000   1.0000   1.0000   1.0000   1.0000   1.0000   0.0000
     0.0000   0.0000   0.0000   0.0000   0.0000   0.0000   0.0000   0.0000
     0.0000   0.0000   0.0000   0.0000   0.0000   0.0000   0.0000   0.0000
     0.0000   0.0000   0.0000   0.0000   0.0000   0.0000   0.0000   0.0000
     0.0000   0.0000   0.0000   0.0000   0.0000   0.0000   0.0000   0.0000
     0.0000   0.0000   0.0000   0.0000   0.0000   0.0000   0.0000   0.0000
     0.0000   0.0000   0.0000   0.0000   0.0000   0.0000   0.0000   0.0000
     0.0000   0.0000   0.0000   0.0000   0.0000   0.0000   0.0000   0.0000
     0.0000   0.0000   0.0000   0.0000   0.0000   0.0000   0.0000   0.0000
     0.0000   0.0000   0.0000   0.0000   0.0000   0.0000   0.0000   0.0000
     0.0000   0.0000   0.0000   0.0000   0.0000   0.0000   0.0000   0.0000
     0.0000   0.0000   0.0000   0.0000   0.0000   0.0000   0.0000   0.0000
     0.0000   0.0000   0.0000   0.0000   0.0000   0.0000   0.0000   0.0000
     0.0000   0.0000   0.0000   0.0000   0.0000   0.0000   0.0000   0.0000
     0.0000   0.0000   0.0000   0.0000   0.0000   0.0000   0.0000   0.0000
     0.0000   0.0000   0.0000   0.0000   0.0000   0.0000   0.0000   0.0000
     0.0000   0.0000   0.0000   0.0000   0.0000   0.0000   0.0000   0.0000
     0.0000   0.0000   0.0000   0.0000   0.0000   0.0000   0.0000   0.0000
     0.0000   0.0000   0.0000   0.0000   0.0000   0.0000   0.0000   0.0000
     0.0000   0.0000   0.0000   0.0000   0.0000   0.0000   0.0000   0.0000
     0.0000   0.0000   0.0000   0.0000   0.0000   0.0000   0.0000   0.0000
     0.0000   0.0000   0.0000   0.0000   0.0000   0.0000   0.0000   0.0000
     0.0000   0.0000   0.0000   0.0000   0.0000   0.0000   0.0000   0.0000
     0.0000   0.0000   0.0000   0.0000   0.0000   0.0000   0.0000   0.0000
     0.0000   0.0000   0.0000   0.0000   0.0000   0.0000   0.0000   0.0000
     0.0000   0.0000   0.0000   0.0000   0.0000   0.0000   0.0000   0.0000
     0.0000   0.0000   0.0000   0.0000   0.0000   0.0000   0.0000   0.0000
     0.0000   0.0000   0.0000   0.0000   0.0000   0.0000   0.0000   0.0000
     0.0000   0.0000   0.0000   0.0000   0.0000   0.0000   0.0000   0.0000
     0.0000   0.0000   0.0000   0.0000   0.0000   0.0000   0.0000   0.0000
     0.0000   0.0000   0.0000   0.0000   0.0000   0.0000   0.0000   0.0000
     0.0000   0.0000   0.0000   0.0000   0.0000   0.0000   0.0000   0.0000
     0.0000   0.0000   0.0000   0.0000   0.0000   0.0000   0.0000   0.0000
     0.0000   0.0000   0.0000   0.0000   0.0000   0.0000   0.0000   0.0000
     0.0000   0.0000   0.0000   0.0000   0.0000   0.0000   0.0000   0.0000
     0.0000   0.0000   0.0000   0.0000   0.0000   0.0000   0.0000   0.0000
     0.0000   0.0000   0.0000   0.0000   0.0000   0.0000   0.0000   0.0000
     0.0000   0.0000   0.0000   0.0000   0.0000   0.0000   0.0000   0.0000
     0.0000   0.0000   0.0000   0.0000   0.0000   0.0000   0.0000   0.0000
     0.0000   0.0000   0.0000   0.0000   0.0000   0.0000   0.0000   0.0000
     0.0000   0.0000   0.0000   0.0000   0.0000   0.0000   0.0000   0.0000
     0.0000   0.0000   0.0000   0.0000   0.0000   0.0000   0.0000   0.0000
     0.0000   0.0000   0.0000   0.0000   0.0000   0.0000   0.0000   0.0000
     0.0000   0.0000   0.0000   0.0000   0.0000   0.0000   0.0000   0.0000
     0.0000   0.0000   0.0000   0.0000   0.0000   0.0000   0.0000   0.0000
     0.0000   0.0000   0.0000   0.0000   0.0000   0.0000   0.0000   0.0000
     0.0000   0.0000   0.0000   0.0000   0.0000   0.0000   0.0000   0.0000
     0.0000   0.0000   0.0000   0.0000   0.0000   0.0000   0.0000   0.0000
     0.0000   0.0000   0.0000   0.0000   0.0000   0.0000   0.0000   0.0000
     0.0000   0.0000   0.0000   0.0000   0.0000   0.0000   0.0000   0.0000
     0.0000   0.0000   0.0000   0.0000   0.0000   0.0000   0.0000   0.0000
     0.0000   0.0000   0.0000   0.0000   0.0000   0.0000   0.0000   0.0000
     0.0000   0.0000   0.0000   0.0000   0.0000   0.0000   0.0000   0.0000
     0.0000   0.0000   0.0000   0.0000   0.0000   0.0000   0.0000   0.0000
     0.0000   0.0000

 ------ SPIN DOWN ----------


          k = 0.0000 0.0000 0.0000 (216681 PWs)   bands (ev):

   -23.3249 -21.2233 -20.8484 -20.8056 -20.7202 -20.6943 -20.6905 -20.1948
   -20.0459 -19.8167 -19.7696 -19.6833 -19.6509 -19.5265 -19.4906 -19.3879
   -19.2885 -19.2850 -19.0989 -18.7248 -18.5317 -18.4206 -18.3601 -18.3421
   -18.3257 -18.3085 -18.3022 -18.2747 -18.2603 -18.2177 -18.1475 -18.1003
   -18.0771 -17.7337 -17.5890 -14.8189 -12.6185 -12.5449 -12.4010 -12.2010
   -12.0558 -11.8305 -11.8061 -11.7490 -11.7279 -11.6924 -11.6920 -11.6196
   -11.6115 -11.5597 -11.4632 -11.3659 -11.1372 -10.8263 -10.8027 -10.6839
   -10.6563 -10.5230 -10.4094 -10.2972  -9.7989  -9.7168  -9.3975  -9.2815
    -9.1498  -9.1439  -9.1393  -9.0750  -9.0496  -9.0248  -8.9930  -8.9875
    -8.9658  -8.9311  -8.9205  -8.8777  -8.8395  -8.5005  -8.4806  -8.4133
    -8.2203  -8.1923  -8.1566  -8.1316  -8.0597  -7.9812  -7.7737  -7.7482
    -7.6958  -7.6874  -7.5852  -7.5453  -7.5212  -7.5077  -7.4606  -7.4183
    -7.2722  -7.2109  -7.1979  -7.1096  -7.0436  -7.0316  -7.0041  -6.9528
    -6.8852  -6.8552  -6.8369  -6.8204  -6.7307  -6.6470  -6.3777  -6.3341
    -6.2894  -6.2583  -6.2510  -6.1870  -6.1428  -6.0590  -5.9157  -5.8802
    -5.8505  -5.8075  -5.2942  -5.2111  -5.0906  -4.9639  -4.8986  -4.8022
    -4.7661  -4.7484  -4.7465  -4.7303  -4.7259  -4.6788  -4.6769  -4.6079
    -4.6032  -4.5071  -4.5035  -3.8387  -3.6692  -2.8000  -0.8683   0.4184
     1.0445   1.0604   1.0631   1.1849   1.1914   1.4355   1.7159   1.7238
     1.7467   1.8016   1.8093   1.8129   1.8374   1.8384   1.8956   1.9035
     1.9168   1.9252   1.9289   1.9494   1.9979   2.1258   2.2938   2.3912
     2.5025   2.7960   2.8013   2.8098   2.8291   2.8362   2.9029   3.2424
     3.3277   3.3373   3.3576   3.3673   3.3724   3.3745   3.3843   3.3875
     3.4104   3.5343   3.5617   3.6431   3.6448   3.6591   3.6819   3.6861
     3.7534   3.9500   3.9616   3.9697   3.9892   4.0665   4.1634   4.1788
     4.2884   4.3579   4.4148   4.4334   4.5432   4.6244   4.6445   4.6710
     4.8096   4.8126   4.8176   4.8186   4.8381   4.8417   5.0906   5.1362
     5.1365   5.1394   5.1501   5.1679   5.1720   5.2305   5.2696   5.2783
     5.2967   5.3662   5.4457   5.4967   5.4974   5.5293   5.5500   5.6277
     5.7057   5.7377   5.7488   5.7554   5.7595   5.7793   5.8313   5.9347
     5.9372   5.9534   5.9548   5.9726   6.0049   6.1082   6.3201   6.3510
     6.6059   6.6182   6.7420   6.7654   6.7842   6.8200   6.8259   6.8491
     6.8623   6.8749   6.8796   6.9247   6.9635   6.9682   6.9796   7.0053
     7.0459   7.0465   7.0517   7.0535   7.0596   7.0674   7.0878   7.0912
     7.1202   7.1257   7.1553   7.1672   7.1795   7.1830   7.2053   7.2237
     7.2326   7.2399   7.2470   7.3473   7.4657   7.4814   7.5698   7.6137
     7.6716   7.7082   7.7171   7.7653   7.7661   7.7749   7.7763   7.7845
     7.7877   7.9770   8.0101   8.0325   8.0349   8.0372   8.0388   8.0485
     8.0489   8.0680   8.0745   8.0789   8.1064   8.1228   8.1280   8.1394
     8.2588   8.3812   8.3876   8.3984   8.4249   8.4349   8.4618   8.4621
     8.4783   8.4803   8.4913   8.5007   8.5010   8.5215   8.5426   8.5520
     8.5800   8.6708   8.6916   8.7293   8.7680   8.7916   8.8000   8.8167
     8.8460   8.8555   8.8674   8.8971   8.8999   8.9189   8.9428   8.9709
     8.9981   9.0068   9.0128   9.0286   9.0310   9.0404   9.0625   9.0663
     9.1086   9.1656   9.1665   9.1862   9.1925   9.1975   9.2168   9.2204
     9.2308   9.2367   9.2798   9.2805   9.3216   9.4565   9.5055   9.5153
     9.5512   9.5722   9.6014   9.6268   9.7943   9.7975   9.8617   9.8894
     9.9017   9.9052   9.9098   9.9111   9.9135   9.9139   9.9167   9.9252
     9.9419   9.9490   9.9864  10.0134  10.0306  10.0619  10.0632  10.0900
    10.0996  10.1285  10.1456  10.2155  10.2502  10.3096  10.3181  10.3223
    10.3369  10.3607  10.3697  10.3728  10.4126  10.4136  10.4396  10.5072
    10.5201  10.5319  10.5720  10.6077  10.7154  10.7271  10.7493  10.7570
    10.7601  10.7809  10.7937  10.8200  10.8311  10.9305  10.9453  10.9734
    11.0381  11.0607  11.0642  11.0762  11.0912  11.0936  11.1183  11.1908
    11.4234  11.4816  11.4950  11.5121  11.5301  11.5412  11.5502  11.5679
    11.5832  11.5916  11.6202  11.6541  11.6558  11.6634  11.6709  11.6752
    11.6911  11.6991  11.7053  11.7135  11.7180  11.7377  11.7417  11.7441
    11.7550  11.7647  11.7767  11.8178  11.8318  11.8342  11.8535  11.8661
    11.8765  11.8925  11.9037  11.9088  11.9209  11.9277  11.9637  11.9649
    11.9888  11.9956  12.1129  12.1619  12.1749  12.1928  12.1958  12.2384
    12.2529  12.3146  12.3184  12.3695  12.5689  12.6294  12.6886  12.6977
    12.7261  12.7793  12.7964  12.7984  12.8276  12.8367  12.9622  12.9805
    12.9864  13.1051  13.1057  13.2626  13.2955  13.3229  13.3305  13.4868
    13.5020  13.5125  13.5131  13.5169  13.5372  13.5422  13.5550  13.5599
    13.5671  13.5678  13.5730  13.5753  13.5758  13.5844  13.5911  13.6009
    13.6055  13.6096  13.6233  13.6287  13.6470  13.6539  13.6621  13.6786
    13.6824  13.6877  13.6903  13.6967  13.7047  13.7108  13.7786  13.8999
    13.9185  13.9690  13.9925  14.0028  14.1752  14.1912  14.1987  14.2130
    14.2169  14.2279  14.2577  14.2727  14.2758  14.2835  14.2980  14.3014
    14.3112  14.3182  14.3225  14.3274  14.3276  14.3295  14.3373  14.3447
    14.3620  14.3718  14.3789  14.4129  14.4297  14.4425  14.4480  14.4938
    14.5037  14.5171

     occupation numbers 
     1.0000   1.0000   1.0000   1.0000   1.0000   1.0000   1.0000   1.0000
     1.0000   1.0000   1.0000   1.0000   1.0000   1.0000   1.0000   1.0000
     1.0000   1.0000   1.0000   1.0000   1.0000   1.0000   1.0000   1.0000
     1.0000   1.0000   1.0000   1.0000   1.0000   1.0000   1.0000   1.0000
     1.0000   1.0000   1.0000   1.0000   1.0000   1.0000   1.0000   1.0000
     1.0000   1.0000   1.0000   1.0000   1.0000   1.0000   1.0000   1.0000
     1.0000   1.0000   1.0000   1.0000   1.0000   1.0000   1.0000   1.0000
     1.0000   1.0000   1.0000   1.0000   1.0000   1.0000   1.0000   1.0000
     1.0000   1.0000   1.0000   1.0000   1.0000   1.0000   1.0000   1.0000
     1.0000   1.0000   1.0000   1.0000   1.0000   1.0000   1.0000   1.0000
     1.0000   1.0000   1.0000   1.0000   1.0000   1.0000   1.0000   1.0000
     1.0000   1.0000   1.0000   1.0000   1.0000   1.0000   1.0000   1.0000
     1.0000   1.0000   1.0000   1.0000   1.0000   1.0000   1.0000   1.0000
     1.0000   1.0000   1.0000   1.0000   1.0000   1.0000   1.0000   1.0000
     1.0000   1.0000   1.0000   1.0000   1.0000   1.0000   1.0000   1.0000
     1.0000   1.0000   1.0000   1.0000   1.0000   1.0000   1.0000   1.0000
     1.0000   1.0000   1.0000   1.0000   1.0000   1.0000   1.0000   1.0000
     1.0000   1.0000   1.0000   1.0000   1.0000   1.0000   0.0000   0.0000
     0.0000   0.0000   0.0000   0.0000   0.0000   0.0000   0.0000   0.0000
     0.0000   0.0000   0.0000   0.0000   0.0000   0.0000   0.0000   0.0000
     0.0000   0.0000   0.0000   0.0000   0.0000   0.0000   0.0000   0.0000
     0.0000   0.0000   0.0000   0.0000   0.0000   0.0000   0.0000   0.0000
     0.0000   0.0000   0.0000   0.0000   0.0000   0.0000   0.0000   0.0000
     0.0000   0.0000   0.0000   0.0000   0.0000   0.0000   0.0000   0.0000
     0.0000   0.0000   0.0000   0.0000   0.0000   0.0000   0.0000   0.0000
     0.0000   0.0000   0.0000   0.0000   0.0000   0.0000   0.0000   0.0000
     0.0000   0.0000   0.0000   0.0000   0.0000   0.0000   0.0000   0.0000
     0.0000   0.0000   0.0000   0.0000   0.0000   0.0000   0.0000   0.0000
     0.0000   0.0000   0.0000   0.0000   0.0000   0.0000   0.0000   0.0000
     0.0000   0.0000   0.0000   0.0000   0.0000   0.0000   0.0000   0.0000
     0.0000   0.0000   0.0000   0.0000   0.0000   0.0000   0.0000   0.0000
     0.0000   0.0000   0.0000   0.0000   0.0000   0.0000   0.0000   0.0000
     0.0000   0.0000   0.0000   0.0000   0.0000   0.0000   0.0000   0.0000
     0.0000   0.0000   0.0000   0.0000   0.0000   0.0000   0.0000   0.0000
     0.0000   0.0000   0.0000   0.0000   0.0000   0.0000   0.0000   0.0000
     0.0000   0.0000   0.0000   0.0000   0.0000   0.0000   0.0000   0.0000
     0.0000   0.0000   0.0000   0.0000   0.0000   0.0000   0.0000   0.0000
     0.0000   0.0000   0.0000   0.0000   0.0000   0.0000   0.0000   0.0000
     0.0000   0.0000   0.0000   0.0000   0.0000   0.0000   0.0000   0.0000
     0.0000   0.0000   0.0000   0.0000   0.0000   0.0000   0.0000   0.0000
     0.0000   0.0000   0.0000   0.0000   0.0000   0.0000   0.0000   0.0000
     0.0000   0.0000   0.0000   0.0000   0.0000   0.0000   0.0000   0.0000
     0.0000   0.0000   0.0000   0.0000   0.0000   0.0000   0.0000   0.0000
     0.0000   0.0000   0.0000   0.0000   0.0000   0.0000   0.0000   0.0000
     0.0000   0.0000   0.0000   0.0000   0.0000   0.0000   0.0000   0.0000
     0.0000   0.0000   0.0000   0.0000   0.0000   0.0000   0.0000   0.0000
     0.0000   0.0000   0.0000   0.0000   0.0000   0.0000   0.0000   0.0000
     0.0000   0.0000   0.0000   0.0000   0.0000   0.0000   0.0000   0.0000
     0.0000   0.0000   0.0000   0.0000   0.0000   0.0000   0.0000   0.0000
     0.0000   0.0000   0.0000   0.0000   0.0000   0.0000   0.0000   0.0000
     0.0000   0.0000   0.0000   0.0000   0.0000   0.0000   0.0000   0.0000
     0.0000   0.0000   0.0000   0.0000   0.0000   0.0000   0.0000   0.0000
     0.0000   0.0000   0.0000   0.0000   0.0000   0.0000   0.0000   0.0000
     0.0000   0.0000   0.0000   0.0000   0.0000   0.0000   0.0000   0.0000
     0.0000   0.0000   0.0000   0.0000   0.0000   0.0000   0.0000   0.0000
     0.0000   0.0000   0.0000   0.0000   0.0000   0.0000   0.0000   0.0000
     0.0000   0.0000   0.0000   0.0000   0.0000   0.0000   0.0000   0.0000
     0.0000   0.0000   0.0000   0.0000   0.0000   0.0000   0.0000   0.0000
     0.0000   0.0000   0.0000   0.0000   0.0000   0.0000   0.0000   0.0000
     0.0000   0.0000   0.0000   0.0000   0.0000   0.0000   0.0000   0.0000
     0.0000   0.0000   0.0000   0.0000   0.0000   0.0000   0.0000   0.0000
     0.0000   0.0000   0.0000   0.0000   0.0000   0.0000   0.0000   0.0000
     0.0000   0.0000   0.0000   0.0000   0.0000   0.0000   0.0000   0.0000
     0.0000   0.0000   0.0000   0.0000   0.0000   0.0000   0.0000   0.0000
     0.0000   0.0000   0.0000   0.0000   0.0000   0.0000   0.0000   0.0000
     0.0000   0.0000   0.0000   0.0000   0.0000   0.0000   0.0000   0.0000
     0.0000   0.0000   0.0000   0.0000   0.0000   0.0000   0.0000   0.0000
     0.0000   0.0000   0.0000   0.0000   0.0000   0.0000   0.0000   0.0000
     0.0000   0.0000   0.0000   0.0000   0.0000   0.0000   0.0000   0.0000
     0.0000   0.0000   0.0000   0.0000   0.0000   0.0000   0.0000   0.0000
     0.0000   0.0000   0.0000   0.0000   0.0000   0.0000   0.0000   0.0000
     0.0000   0.0000

          k = 0.0000-0.5774 0.0000 (216604 PWs)   bands (ev):

   -23.3249 -21.1468 -21.0931 -20.8507 -20.6736 -20.4869 -20.3805 -20.2933
   -20.1978 -20.1909 -19.8621 -19.7036 -19.6427 -19.5493 -19.3015 -19.1488
   -19.0565 -19.0240 -18.9362 -18.8948 -18.8186 -18.6990 -18.6454 -18.5824
   -18.3776 -18.3152 -18.2733 -18.2538 -18.1459 -18.0774 -18.0074 -17.9455
   -17.8474 -17.8118 -17.6980 -14.8191 -12.4936 -12.4104 -12.3383 -12.2415
   -12.2141 -12.1245 -12.0421 -11.9974 -11.8692 -11.7525 -11.6397 -11.5884
   -11.4449 -11.3137 -11.2330 -11.1606 -11.1379 -10.9358 -10.6542 -10.5806
   -10.3789 -10.3515 -10.2523 -10.1697 -10.0306  -9.9545  -9.8091  -9.7110
    -9.5921  -9.5800  -9.4074  -9.2206  -9.0357  -8.9527  -8.8401  -8.7473
    -8.7125  -8.6695  -8.5426  -8.4488  -8.4416  -8.3957  -8.3345  -8.2611
    -8.2561  -8.2103  -8.1348  -8.0781  -8.0558  -7.9820  -7.9432  -7.9170
    -7.8367  -7.7900  -7.7060  -7.6818  -7.6290  -7.5855  -7.5466  -7.5301
    -7.4756  -7.3606  -7.3403  -7.2807  -7.2730  -7.1305  -6.8595  -6.8102
    -6.7485  -6.7274  -6.6654  -6.6513  -6.5902  -6.5652  -6.5176  -6.4636
    -6.3749  -6.1434  -5.9076  -5.8626  -5.8403  -5.7802  -5.7802  -5.7198
    -5.6675  -5.6063  -5.5730  -5.5672  -5.4928  -5.3333  -5.2403  -5.1487
    -5.1214  -5.0768  -4.8002  -4.7356  -4.6792  -4.6097  -4.5376  -4.3728
    -4.2411  -4.1362  -4.0326  -3.9802  -3.9400  -2.8122  -0.8704   0.4374
     1.1665   1.1743   1.2326   1.2488   1.2583   1.2936   1.3135   1.3213
     1.3749   1.4548   1.5627   1.7090   1.7786   1.8527   1.8921   2.1267
     2.1742   2.1943   2.2297   2.4424   2.5471   2.5524   2.5692   2.5935
     2.6138   2.6335   2.6463   2.6918   2.7092   2.7418   2.8202   2.9665
     3.0534   3.0643   3.1041   3.1576   3.1811   3.2551   3.3368   3.3920
     3.4028   3.4422   3.5450   3.7343   3.7555   3.7781   3.8170   3.8225
     3.8375   3.8603   3.9193   3.9778   4.0117   4.0373   4.0450   4.0683
     4.2508   4.2607   4.2649   4.4808   4.4852   4.5713   4.6493   4.7351
     4.8395   4.8703   4.9021   5.1155   5.1304   5.1595   5.1984   5.2078
     5.2206   5.2283   5.2462   5.2749   5.3022   5.3115   5.3118   5.3151
     5.3311   5.3357   5.3380   5.3483   5.3521   5.3822   5.3925   5.4487
     5.4850   5.5594   5.7644   5.9553   6.0873   6.1256   6.1661   6.1879
     6.1962   6.2070   6.2913   6.3049   6.3129   6.3276   6.3637   6.4547
     6.5556   6.5804   6.6244   6.6446   6.6609   6.6650   6.6771   6.6840
     6.6984   6.7050   6.7122   6.7197   6.7240   6.7597   6.7841   6.7917
     6.8272   6.8401   6.8421   6.8772   6.9445   6.9864   7.0118   7.0269
     7.0500   7.1225   7.1658   7.1942   7.1960   7.1977   7.2130   7.2236
     7.2388   7.2583   7.2836   7.2842   7.3400   7.4167   7.4773   7.5261
     7.5271   7.5562   7.5707   7.6140   7.7054   7.7223   7.7795   7.8029
     7.8354   7.8505   7.8682   7.8986   7.9457   7.9730   8.0156   8.0470
     8.0825   8.0983   8.1080   8.1259   8.1474   8.1514   8.1799   8.1968
     8.2303   8.2795   8.2859   8.3229   8.3252   8.3316   8.3446   8.3849
     8.4084   8.4173   8.4458   8.4684   8.5258   8.5429   8.5587   8.5797
     8.6195   8.6459   8.6561   8.6721   8.7021   8.7210   8.7324   8.7422
     8.7556   8.7661   8.7861   8.8555   8.8602   8.8628   8.9354   8.9593
     9.0374   9.1005   9.1933   9.1994   9.2477   9.2646   9.3000   9.3330
     9.3567   9.3574   9.3679   9.3779   9.3865   9.3888   9.3955   9.4041
     9.4369   9.4459   9.4493   9.4654   9.4797   9.4799   9.5040   9.5098
     9.5157   9.5216   9.5219   9.5336   9.5576   9.5815   9.6219   9.6858
     9.6905   9.7057   9.7556   9.8104   9.8583   9.9114  10.0183  10.0469
    10.0872  10.1087  10.1448  10.1864  10.2040  10.2181  10.2400  10.3113
    10.3551  10.3697  10.3929  10.4006  10.4584  10.4750  10.4870  10.4892
    10.4909  10.4966  10.5076  10.5201  10.5316  10.5924  10.6101  10.6145
    10.6241  10.6440  10.6610  10.6693  10.7012  10.7127  10.7273  10.7484
    10.7622  10.7644  10.8068  10.8273  10.8488  10.9358  10.9577  10.9690
    10.9982  11.0210  11.0405  11.1535  11.1666  11.1960  11.2153  11.2293
    11.2495  11.2757  11.3225  11.3393  11.3537  11.3574  11.3626  11.3753
    11.4016  11.4155  11.4377  11.4466  11.4842  11.4966  11.5129  11.5301
    11.5440  11.5537  11.5707  11.6043  11.6183  11.6281  11.6496  11.6496
    11.6976  11.7017  11.7309  11.7876  11.7923  11.8186  11.8554  11.8780
    11.9868  11.9997  12.0045  12.0146  12.0739  12.1168  12.1323  12.1408
    12.1901  12.2157  12.2992  12.3789  12.3925  12.4039  12.4111  12.4208
    12.4287  12.5924  12.6171  12.6435  12.6878  12.6900  12.7205  12.7230
    12.7235  12.7645  12.8021  12.8136  12.8248  12.8442  12.8714  12.8948
    12.9010  12.9216  12.9598  13.0325  13.0418  13.0733  13.0924  13.0975
    13.1144  13.1237  13.1432  13.1725  13.1853  13.2101  13.2420  13.2484
    13.2486  13.2535  13.2549  13.2621  13.2743  13.2943  13.3463  13.3464
    13.3820  13.3895  13.4076  13.4141  13.4318  13.4529  13.4756  13.5442
    13.5792  13.6028  13.6259  13.6446  13.6987  13.7073  13.7086  13.7436
    13.7809  13.7927  13.8002  13.8244  13.8309  13.8335  13.8883  13.9068
    13.9190  13.9359  13.9569  13.9736  13.9909  14.0236  14.0336  14.0655
    14.0879  14.1058  14.1112  14.2004  14.2293  14.2432  14.2725  14.2730
    14.3561  14.4484  14.4597  14.4882  14.4930  14.5110  14.5216  14.5337
    14.5384  14.5822

     occupation numbers 
     1.0000   1.0000   1.0000   1.0000   1.0000   1.0000   1.0000   1.0000
     1.0000   1.0000   1.0000   1.0000   1.0000   1.0000   1.0000   1.0000
     1.0000   1.0000   1.0000   1.0000   1.0000   1.0000   1.0000   1.0000
     1.0000   1.0000   1.0000   1.0000   1.0000   1.0000   1.0000   1.0000
     1.0000   1.0000   1.0000   1.0000   1.0000   1.0000   1.0000   1.0000
     1.0000   1.0000   1.0000   1.0000   1.0000   1.0000   1.0000   1.0000
     1.0000   1.0000   1.0000   1.0000   1.0000   1.0000   1.0000   1.0000
     1.0000   1.0000   1.0000   1.0000   1.0000   1.0000   1.0000   1.0000
     1.0000   1.0000   1.0000   1.0000   1.0000   1.0000   1.0000   1.0000
     1.0000   1.0000   1.0000   1.0000   1.0000   1.0000   1.0000   1.0000
     1.0000   1.0000   1.0000   1.0000   1.0000   1.0000   1.0000   1.0000
     1.0000   1.0000   1.0000   1.0000   1.0000   1.0000   1.0000   1.0000
     1.0000   1.0000   1.0000   1.0000   1.0000   1.0000   1.0000   1.0000
     1.0000   1.0000   1.0000   1.0000   1.0000   1.0000   1.0000   1.0000
     1.0000   1.0000   1.0000   1.0000   1.0000   1.0000   1.0000   1.0000
     1.0000   1.0000   1.0000   1.0000   1.0000   1.0000   1.0000   1.0000
     1.0000   1.0000   1.0000   1.0000   1.0000   1.0000   1.0000   1.0000
     1.0000   1.0000   1.0000   1.0000   1.0000   1.0000   0.0000   0.0000
     0.0000   0.0000   0.0000   0.0000   0.0000   0.0000   0.0000   0.0000
     0.0000   0.0000   0.0000   0.0000   0.0000   0.0000   0.0000   0.0000
     0.0000   0.0000   0.0000   0.0000   0.0000   0.0000   0.0000   0.0000
     0.0000   0.0000   0.0000   0.0000   0.0000   0.0000   0.0000   0.0000
     0.0000   0.0000   0.0000   0.0000   0.0000   0.0000   0.0000   0.0000
     0.0000   0.0000   0.0000   0.0000   0.0000   0.0000   0.0000   0.0000
     0.0000   0.0000   0.0000   0.0000   0.0000   0.0000   0.0000   0.0000
     0.0000   0.0000   0.0000   0.0000   0.0000   0.0000   0.0000   0.0000
     0.0000   0.0000   0.0000   0.0000   0.0000   0.0000   0.0000   0.0000
     0.0000   0.0000   0.0000   0.0000   0.0000   0.0000   0.0000   0.0000
     0.0000   0.0000   0.0000   0.0000   0.0000   0.0000   0.0000   0.0000
     0.0000   0.0000   0.0000   0.0000   0.0000   0.0000   0.0000   0.0000
     0.0000   0.0000   0.0000   0.0000   0.0000   0.0000   0.0000   0.0000
     0.0000   0.0000   0.0000   0.0000   0.0000   0.0000   0.0000   0.0000
     0.0000   0.0000   0.0000   0.0000   0.0000   0.0000   0.0000   0.0000
     0.0000   0.0000   0.0000   0.0000   0.0000   0.0000   0.0000   0.0000
     0.0000   0.0000   0.0000   0.0000   0.0000   0.0000   0.0000   0.0000
     0.0000   0.0000   0.0000   0.0000   0.0000   0.0000   0.0000   0.0000
     0.0000   0.0000   0.0000   0.0000   0.0000   0.0000   0.0000   0.0000
     0.0000   0.0000   0.0000   0.0000   0.0000   0.0000   0.0000   0.0000
     0.0000   0.0000   0.0000   0.0000   0.0000   0.0000   0.0000   0.0000
[...]
    11.5328  11.5476  11.5484  11.5644  11.6033  11.6293  11.6326  11.6639
    11.7296  11.7401  11.7647  11.7843  11.8016  11.8191  11.8709  11.8917
    11.9856  11.9864  11.9917  11.9965  12.0031  12.0617  12.0922  12.1066
    12.1580  12.2009  12.3671  12.3977  12.4106  12.4128  12.4216  12.5720
    12.6423  12.6674  12.6771  12.7140  12.7212  12.7284  12.7308  12.7620
    12.7644  12.8027  12.8430  12.8652  12.8709  12.8735  12.8755  12.9060
    12.9079  12.9400  12.9552  13.0189  13.0196  13.0517  13.0653  13.0949
    13.0996  13.1066  13.1332  13.1672  13.1756  13.2099  13.2113  13.2350
    13.2374  13.2402  13.2459  13.2475  13.2629  13.2838  13.2957  13.3613
    13.3783  13.3805  13.4021  13.4125  13.4332  13.4513  13.4622  13.4886
    13.5962  13.5997  13.6095  13.6150  13.6218  13.7240  13.7474  13.7542
    13.7577  13.7642  13.7987  13.8021  13.8093  13.8434  13.8441  13.8794
    13.8877  13.9329  13.9450  13.9550  13.9572  13.9746  13.9976  14.0433
    14.0532  14.0558  14.0590  14.1055  14.2106  14.2211  14.2379  14.2637
    14.3805  14.4015  14.4430  14.4602  14.4789  14.4934  14.5113  14.5287
    14.5579  14.5767

     occupation numbers 
     1.0000   1.0000   1.0000   1.0000   1.0000   1.0000   1.0000   1.0000
     1.0000   1.0000   1.0000   1.0000   1.0000   1.0000   1.0000   1.0000
     1.0000   1.0000   1.0000   1.0000   1.0000   1.0000   1.0000   1.0000
     1.0000   1.0000   1.0000   1.0000   1.0000   1.0000   1.0000   1.0000
     1.0000   1.0000   1.0000   1.0000   1.0000   1.0000   1.0000   1.0000
     1.0000   1.0000   1.0000   1.0000   1.0000   1.0000   1.0000   1.0000
     1.0000   1.0000   1.0000   1.0000   1.0000   1.0000   1.0000   1.0000
     1.0000   1.0000   1.0000   1.0000   1.0000   1.0000   1.0000   1.0000
     1.0000   1.0000   1.0000   1.0000   1.0000   1.0000   1.0000   1.0000
     1.0000   1.0000   1.0000   1.0000   1.0000   1.0000   1.0000   1.0000
     1.0000   1.0000   1.0000   1.0000   1.0000   1.0000   1.0000   1.0000
     1.0000   1.0000   1.0000   1.0000   1.0000   1.0000   1.0000   1.0000
     1.0000   1.0000   1.0000   1.0000   1.0000   1.0000   1.0000   1.0000
     1.0000   1.0000   1.0000   1.0000   1.0000   1.0000   1.0000   1.0000
     1.0000   1.0000   1.0000   1.0000   1.0000   1.0000   1.0000   1.0000
     1.0000   1.0000   1.0000   1.0000   1.0000   1.0000   1.0000   1.0000
     1.0000   1.0000   1.0000   1.0000   1.0000   1.0000   1.0000   1.0000
     1.0000   1.0000   1.0000   1.0000   1.0000   1.0000   0.0000   0.0000
     0.0000   0.0000   0.0000   0.0000   0.0000   0.0000   0.0000   0.0000
     0.0000   0.0000   0.0000   0.0000   0.0000   0.0000   0.0000   0.0000
     0.0000   0.0000   0.0000   0.0000   0.0000   0.0000   0.0000   0.0000
     0.0000   0.0000   0.0000   0.0000   0.0000   0.0000   0.0000   0.0000
     0.0000   0.0000   0.0000   0.0000   0.0000   0.0000   0.0000   0.0000
     0.0000   0.0000   0.0000   0.0000   0.0000   0.0000   0.0000   0.0000
     0.0000   0.0000   0.0000   0.0000   0.0000   0.0000   0.0000   0.0000
     0.0000   0.0000   0.0000   0.0000   0.0000   0.0000   0.0000   0.0000
     0.0000   0.0000   0.0000   0.0000   0.0000   0.0000   0.0000   0.0000
     0.0000   0.0000   0.0000   0.0000   0.0000   0.0000   0.0000   0.0000
     0.0000   0.0000   0.0000   0.0000   0.0000   0.0000   0.0000   0.0000
     0.0000   0.0000   0.0000   0.0000   0.0000   0.0000   0.0000   0.0000
     0.0000   0.0000   0.0000   0.0000   0.0000   0.0000   0.0000   0.0000
     0.0000   0.0000   0.0000   0.0000   0.0000   0.0000   0.0000   0.0000
     0.0000   0.0000   0.0000   0.0000   0.0000   0.0000   0.0000   0.0000
     0.0000   0.0000   0.0000   0.0000   0.0000   0.0000   0.0000   0.0000
     0.0000   0.0000   0.0000   0.0000   0.0000   0.0000   0.0000   0.0000
     0.0000   0.0000   0.0000   0.0000   0.0000   0.0000   0.0000   0.0000
     0.0000   0.0000   0.0000   0.0000   0.0000   0.0000   0.0000   0.0000
     0.0000   0.0000   0.0000   0.0000   0.0000   0.0000   0.0000   0.0000
     0.0000   0.0000   0.0000   0.0000   0.0000   0.0000   0.0000   0.0000
     0.0000   0.0000   0.0000   0.0000   0.0000   0.0000   0.0000   0.0000
     0.0000   0.0000   0.0000   0.0000   0.0000   0.0000   0.0000   0.0000
     0.0000   0.0000   0.0000   0.0000   0.0000   0.0000   0.0000   0.0000
     0.0000   0.0000   0.0000   0.0000   0.0000   0.0000   0.0000   0.0000
     0.0000   0.0000   0.0000   0.0000   0.0000   0.0000   0.0000   0.0000
     0.0000   0.0000   0.0000   0.0000   0.0000   0.0000   0.0000   0.0000
     0.0000   0.0000   0.0000   0.0000   0.0000   0.0000   0.0000   0.0000
     0.0000   0.0000   0.0000   0.0000   0.0000   0.0000   0.0000   0.0000
     0.0000   0.0000   0.0000   0.0000   0.0000   0.0000   0.0000   0.0000
     0.0000   0.0000   0.0000   0.0000   0.0000   0.0000   0.0000   0.0000
     0.0000   0.0000   0.0000   0.0000   0.0000   0.0000   0.0000   0.0000
     0.0000   0.0000   0.0000   0.0000   0.0000   0.0000   0.0000   0.0000
     0.0000   0.0000   0.0000   0.0000   0.0000   0.0000   0.0000   0.0000
     0.0000   0.0000   0.0000   0.0000   0.0000   0.0000   0.0000   0.0000
     0.0000   0.0000   0.0000   0.0000   0.0000   0.0000   0.0000   0.0000
     0.0000   0.0000   0.0000   0.0000   0.0000   0.0000   0.0000   0.0000
     0.0000   0.0000   0.0000   0.0000   0.0000   0.0000   0.0000   0.0000
     0.0000   0.0000   0.0000   0.0000   0.0000   0.0000   0.0000   0.0000
     0.0000   0.0000   0.0000   0.0000   0.0000   0.0000   0.0000   0.0000
     0.0000   0.0000   0.0000   0.0000   0.0000   0.0000   0.0000   0.0000
     0.0000   0.0000   0.0000   0.0000   0.0000   0.0000   0.0000   0.0000
     0.0000   0.0000   0.0000   0.0000   0.0000   0.0000   0.0000   0.0000
     0.0000   0.0000   0.0000   0.0000   0.0000   0.0000   0.0000   0.0000
     0.0000   0.0000   0.0000   0.0000   0.0000   0.0000   0.0000   0.0000
     0.0000   0.0000   0.0000   0.0000   0.0000   0.0000   0.0000   0.0000
     0.0000   0.0000   0.0000   0.0000   0.0000   0.0000   0.0000   0.0000
     0.0000   0.0000   0.0000   0.0000   0.0000   0.0000   0.0000   0.0000
     0.0000   0.0000   0.0000   0.0000   0.0000   0.0000   0.0000   0.0000
     0.0000   0.0000   0.0000   0.0000   0.0000   0.0000   0.0000   0.0000
     0.0000   0.0000   0.0000   0.0000   0.0000   0.0000   0.0000   0.0000
     0.0000   0.0000   0.0000   0.0000   0.0000   0.0000   0.0000   0.0000
     0.0000   0.0000   0.0000   0.0000   0.0000   0.0000   0.0000   0.0000
     0.0000   0.0000

          k =-0.5000-0.2887 0.0000 (216604 PWs)   bands (ev):

   -23.3249 -21.1465 -21.0936 -20.8507 -20.6732 -20.4871 -20.3801 -20.2937
   -20.1977 -20.1913 -19.8622 -19.7038 -19.6420 -19.5491 -19.3018 -19.1486
   -19.0569 -19.0240 -18.9361 -18.8949 -18.8188 -18.6988 -18.6452 -18.5824
   -18.3775 -18.3148 -18.2736 -18.2540 -18.1457 -18.0776 -18.0074 -17.9454
   -17.8472 -17.8122 -17.6979 -14.8191 -12.4933 -12.4109 -12.3387 -12.2412
   -12.2136 -12.1251 -12.0425 -11.9969 -11.8685 -11.7526 -11.6391 -11.5880
   -11.4449 -11.3147 -11.2332 -11.1609 -11.1379 -10.9362 -10.6536 -10.5810
   -10.3789 -10.3525 -10.2511 -10.1699 -10.0295  -9.9544  -9.8082  -9.7111
    -9.5926  -9.5806  -9.4073  -9.2209  -9.0359  -8.9527  -8.8401  -8.7473
    -8.7108  -8.6694  -8.5441  -8.4500  -8.4419  -8.3955  -8.3355  -8.2608
    -8.2557  -8.2107  -8.1331  -8.0768  -8.0558  -7.9817  -7.9437  -7.9173
    -7.8365  -7.7892  -7.7074  -7.6821  -7.6285  -7.5846  -7.5473  -7.5305
    -7.4762  -7.3603  -7.3408  -7.2793  -7.2729  -7.1312  -6.8581  -6.8101
    -6.7479  -6.7282  -6.6650  -6.6511  -6.5912  -6.5657  -6.5182  -6.4634
    -6.3749  -6.1440  -5.9081  -5.8610  -5.8402  -5.7809  -5.7804  -5.7200
    -5.6654  -5.6066  -5.5726  -5.5680  -5.4928  -5.3335  -5.2414  -5.1494
    -5.1209  -5.0766  -4.7998  -4.7347  -4.6791  -4.6093  -4.5374  -4.3738
    -4.2413  -4.1360  -4.0326  -3.9805  -3.9399  -2.8123  -0.8704   0.4375
     1.1667   1.1753   1.2325   1.2488   1.2581   1.2936   1.3126   1.3213
     1.3746   1.4551   1.5620   1.7090   1.7786   1.8526   1.8931   2.1264
     2.1737   2.1943   2.2297   2.4419   2.5470   2.5524   2.5692   2.5934
     2.6139   2.6333   2.6463   2.6925   2.7092   2.7418   2.8202   2.9666
     3.0534   3.0643   3.1051   3.1576   3.1811   3.2549   3.3369   3.3921
     3.4028   3.4423   3.5454   3.7343   3.7555   3.7779   3.8169   3.8225
     3.8373   3.8592   3.9194   3.9777   4.0117   4.0374   4.0450   4.0683
     4.2509   4.2606   4.2648   4.4808   4.4851   4.5715   4.6493   4.7351
     4.8393   4.8703   4.9022   5.1157   5.1306   5.1595   5.1984   5.2080
     5.2208   5.2286   5.2465   5.2747   5.3019   5.3112   5.3117   5.3149
     5.3308   5.3357   5.3378   5.3482   5.3519   5.3824   5.3927   5.4487
     5.4858   5.5591   5.7646   5.9554   6.0876   6.1246   6.1661   6.1874
     6.1963   6.2070   6.2914   6.3049   6.3129   6.3276   6.3648   6.4545
     6.5543   6.5807   6.6242   6.6446   6.6610   6.6649   6.6768   6.6841
     6.6987   6.7051   6.7123   6.7198   6.7240   6.7599   6.7846   6.7916
     6.8277   6.8401   6.8416   6.8764   6.9448   6.9867   7.0121   7.0260
     7.0492   7.1230   7.1661   7.1945   7.1956   7.1980   7.2129   7.2234
     7.2387   7.2585   7.2835   7.2847   7.3402   7.4170   7.4787   7.5261
     7.5278   7.5564   7.5696   7.6133   7.7039   7.7221   7.7795   7.8030
     7.8355   7.8500   7.8683   7.8976   7.9478   7.9732   8.0157   8.0479
     8.0836   8.0979   8.1079   8.1264   8.1476   8.1504   8.1796   8.1968
     8.2299   8.2795   8.2859   8.3237   8.3253   8.3316   8.3445   8.3854
     8.4089   8.4169   8.4458   8.4693   8.5252   8.5430   8.5571   8.5805
     8.6195   8.6460   8.6566   8.6722   8.7022   8.7209   8.7324   8.7423
     8.7556   8.7660   8.7859   8.8553   8.8611   8.8626   8.9348   8.9594
     9.0375   9.1008   9.1935   9.2000   9.2466   9.2646   9.2998   9.3332
     9.3565   9.3578   9.3677   9.3778   9.3867   9.3887   9.3946   9.4041
     9.4362   9.4455   9.4495   9.4654   9.4794   9.4801   9.5041   9.5100
     9.5140   9.5209   9.5216   9.5337   9.5575   9.5812   9.6219   9.6856
     9.6901   9.7057   9.7554   9.8104   9.8585   9.9111  10.0179  10.0476
    10.0862  10.1079  10.1453  10.1863  10.2037  10.2177  10.2411  10.3116
    10.3547  10.3692  10.3932  10.4009  10.4587  10.4760  10.4869  10.4894
    10.4913  10.4966  10.5077  10.5201  10.5315  10.5925  10.6109  10.6145
    10.6242  10.6436  10.6610  10.6695  10.7013  10.7127  10.7273  10.7495
    10.7625  10.7644  10.8066  10.8279  10.8491  10.9368  10.9573  10.9684
    10.9978  11.0210  11.0406  11.1539  11.1670  11.1962  11.2151  11.2294
    11.2494  11.2755  11.3226  11.3393  11.3535  11.3574  11.3624  11.3751
    11.4008  11.4155  11.4387  11.4472  11.4841  11.4968  11.5119  11.5303
    11.5444  11.5529  11.5711  11.6048  11.6181  11.6279  11.6496  11.6500
    11.6968  11.7015  11.7306  11.7878  11.7923  11.8187  11.8555  11.8771
    11.9867  11.9998  12.0044  12.0144  12.0750  12.1167  12.1323  12.1431
    12.1900  12.2142  12.2981  12.3794  12.3925  12.4039  12.4111  12.4210
    12.4289  12.5929  12.6166  12.6433  12.6872  12.6899  12.7199  12.7229
    12.7235  12.7643  12.8021  12.8137  12.8248  12.8428  12.8716  12.8953
    12.9011  12.9208  12.9608  13.0324  13.0420  13.0734  13.0929  13.0976
    13.1149  13.1235  13.1430  13.1723  13.1855  13.2106  13.2420  13.2483
    13.2484  13.2536  13.2550  13.2621  13.2742  13.2944  13.3464  13.3468
    13.3820  13.3896  13.4077  13.4140  13.4319  13.4530  13.4759  13.5438
    13.5796  13.6026  13.6259  13.6443  13.6991  13.7065  13.7086  13.7435
    13.7807  13.7927  13.8001  13.8242  13.8308  13.8335  13.8882  13.9075
    13.9189  13.9360  13.9569  13.9736  13.9911  14.0238  14.0334  14.0656
    14.0880  14.1065  14.1111  14.2010  14.2292  14.2435  14.2719  14.2727
    14.3559  14.4485  14.4596  14.4881  14.4930  14.5110  14.5217  14.5339
    14.5386  14.5830

     occupation numbers 
     1.0000   1.0000   1.0000   1.0000   1.0000   1.0000   1.0000   1.0000
     1.0000   1.0000   1.0000   1.0000   1.0000   1.0000   1.0000   1.0000
     1.0000   1.0000   1.0000   1.0000   1.0000   1.0000   1.0000   1.0000
     1.0000   1.0000   1.0000   1.0000   1.0000   1.0000   1.0000   1.0000
     1.0000   1.0000   1.0000   1.0000   1.0000   1.0000   1.0000   1.0000
     1.0000   1.0000   1.0000   1.0000   1.0000   1.0000   1.0000   1.0000
     1.0000   1.0000   1.0000   1.0000   1.0000   1.0000   1.0000   1.0000
     1.0000   1.0000   1.0000   1.0000   1.0000   1.0000   1.0000   1.0000
     1.0000   1.0000   1.0000   1.0000   1.0000   1.0000   1.0000   1.0000
     1.0000   1.0000   1.0000   1.0000   1.0000   1.0000   1.0000   1.0000
     1.0000   1.0000   1.0000   1.0000   1.0000   1.0000   1.0000   1.0000
     1.0000   1.0000   1.0000   1.0000   1.0000   1.0000   1.0000   1.0000
     1.0000   1.0000   1.0000   1.0000   1.0000   1.0000   1.0000   1.0000
     1.0000   1.0000   1.0000   1.0000   1.0000   1.0000   1.0000   1.0000
     1.0000   1.0000   1.0000   1.0000   1.0000   1.0000   1.0000   1.0000
     1.0000   1.0000   1.0000   1.0000   1.0000   1.0000   1.0000   1.0000
     1.0000   1.0000   1.0000   1.0000   1.0000   1.0000   1.0000   1.0000
     1.0000   1.0000   1.0000   1.0000   1.0000   1.0000   0.0000   0.0000
     0.0000   0.0000   0.0000   0.0000   0.0000   0.0000   0.0000   0.0000
     0.0000   0.0000   0.0000   0.0000   0.0000   0.0000   0.0000   0.0000
     0.0000   0.0000   0.0000   0.0000   0.0000   0.0000   0.0000   0.0000
     0.0000   0.0000   0.0000   0.0000   0.0000   0.0000   0.0000   0.0000
     0.0000   0.0000   0.0000   0.0000   0.0000   0.0000   0.0000   0.0000
     0.0000   0.0000   0.0000   0.0000   0.0000   0.0000   0.0000   0.0000
     0.0000   0.0000   0.0000   0.0000   0.0000   0.0000   0.0000   0.0000
     0.0000   0.0000   0.0000   0.0000   0.0000   0.0000   0.0000   0.0000
     0.0000   0.0000   0.0000   0.0000   0.0000   0.0000   0.0000   0.0000
     0.0000   0.0000   0.0000   0.0000   0.0000   0.0000   0.0000   0.0000
     0.0000   0.0000   0.0000   0.0000   0.0000   0.0000   0.0000   0.0000
     0.0000   0.0000   0.0000   0.0000   0.0000   0.0000   0.0000   0.0000
     0.0000   0.0000   0.0000   0.0000   0.0000   0.0000   0.0000   0.0000
     0.0000   0.0000   0.0000   0.0000   0.0000   0.0000   0.0000   0.0000
     0.0000   0.0000   0.0000   0.0000   0.0000   0.0000   0.0000   0.0000
     0.0000   0.0000   0.0000   0.0000   0.0000   0.0000   0.0000   0.0000
     0.0000   0.0000   0.0000   0.0000   0.0000   0.0000   0.0000   0.0000
     0.0000   0.0000   0.0000   0.0000   0.0000   0.0000   0.0000   0.0000
     0.0000   0.0000   0.0000   0.0000   0.0000   0.0000   0.0000   0.0000
     0.0000   0.0000   0.0000   0.0000   0.0000   0.0000   0.0000   0.0000
     0.0000   0.0000   0.0000   0.0000   0.0000   0.0000   0.0000   0.0000
     0.0000   0.0000   0.0000   0.0000   0.0000   0.0000   0.0000   0.0000
     0.0000   0.0000   0.0000   0.0000   0.0000   0.0000   0.0000   0.0000
     0.0000   0.0000   0.0000   0.0000   0.0000   0.0000   0.0000   0.0000
     0.0000   0.0000   0.0000   0.0000   0.0000   0.0000   0.0000   0.0000
     0.0000   0.0000   0.0000   0.0000   0.0000   0.0000   0.0000   0.0000
     0.0000   0.0000   0.0000   0.0000   0.0000   0.0000   0.0000   0.0000
     0.0000   0.0000   0.0000   0.0000   0.0000   0.0000   0.0000   0.0000
     0.0000   0.0000   0.0000   0.0000   0.0000   0.0000   0.0000   0.0000
     0.0000   0.0000   0.0000   0.0000   0.0000   0.0000   0.0000   0.0000
     0.0000   0.0000   0.0000   0.0000   0.0000   0.0000   0.0000   0.0000
     0.0000   0.0000   0.0000   0.0000   0.0000   0.0000   0.0000   0.0000
     0.0000   0.0000   0.0000   0.0000   0.0000   0.0000   0.0000   0.0000
     0.0000   0.0000   0.0000   0.0000   0.0000   0.0000   0.0000   0.0000
     0.0000   0.0000   0.0000   0.0000   0.0000   0.0000   0.0000   0.0000
     0.0000   0.0000   0.0000   0.0000   0.0000   0.0000   0.0000   0.0000
     0.0000   0.0000   0.0000   0.0000   0.0000   0.0000   0.0000   0.0000
     0.0000   0.0000   0.0000   0.0000   0.0000   0.0000   0.0000   0.0000
     0.0000   0.0000   0.0000   0.0000   0.0000   0.0000   0.0000   0.0000
     0.0000   0.0000   0.0000   0.0000   0.0000   0.0000   0.0000   0.0000
     0.0000   0.0000   0.0000   0.0000   0.0000   0.0000   0.0000   0.0000
     0.0000   0.0000   0.0000   0.0000   0.0000   0.0000   0.0000   0.0000
     0.0000   0.0000   0.0000   0.0000   0.0000   0.0000   0.0000   0.0000
     0.0000   0.0000   0.0000   0.0000   0.0000   0.0000   0.0000   0.0000
     0.0000   0.0000   0.0000   0.0000   0.0000   0.0000   0.0000   0.0000
     0.0000   0.0000   0.0000   0.0000   0.0000   0.0000   0.0000   0.0000
     0.0000   0.0000   0.0000   0.0000   0.0000   0.0000   0.0000   0.0000
     0.0000   0.0000   0.0000   0.0000   0.0000   0.0000   0.0000   0.0000
     0.0000   0.0000   0.0000   0.0000   0.0000   0.0000   0.0000   0.0000
     0.0000   0.0000   0.0000   0.0000   0.0000   0.0000   0.0000   0.0000
     0.0000   0.0000   0.0000   0.0000   0.0000   0.0000   0.0000   0.0000
     0.0000   0.0000   0.0000   0.0000   0.0000   0.0000   0.0000   0.0000
     0.0000   0.0000   0.0000   0.0000   0.0000   0.0000   0.0000   0.0000
     0.0000   0.0000

     the Fermi energy is    -0.9505 ev

     Writing output data file bn.save
 
     init_run     :      4.06s CPU      4.24s WALL (       1 calls)
     electrons    :    706.79s CPU    724.07s WALL (       1 calls)

     Called by init_run:
     wfcinit      :      0.00s CPU      0.04s WALL (       1 calls)
     wfcinit:atom :      0.07s CPU      0.11s WALL (       2 calls)
     wfcinit:wfcr :     15.51s CPU     15.71s WALL (       2 calls)
     potinit      :      0.64s CPU      0.71s WALL (       1 calls)

     Called by electrons:
     c_bands      :    706.79s CPU    724.07s WALL (       1 calls)
     v_of_rho     :      0.30s CPU      0.33s WALL (       1 calls)
     v_h          :      0.02s CPU      0.02s WALL (       1 calls)
     v_xc         :      0.28s CPU      0.31s WALL (       1 calls)

     Called by c_bands:
     init_us_2    :      0.08s CPU      0.12s WALL (       2 calls)
     cegterg      :    659.76s CPU    673.67s WALL (       9 calls)

     Called by sum_band:

     Called by *egterg:
     h_psi        :    310.48s CPU    312.17s WALL (     158 calls)
     g_psi        :      1.48s CPU      1.48s WALL (     147 calls)
     cdiaghg      :    107.77s CPU    112.48s WALL (     149 calls)
     cegterg:over :    106.24s CPU    106.56s WALL (     147 calls)
     cegterg:upda :     88.96s CPU     93.25s WALL (     147 calls)
     cegterg:last :     44.26s CPU     44.50s WALL (      17 calls)
     cdiaghg:chol :      9.06s CPU      9.25s WALL (     149 calls)
     cdiaghg:inve :     14.05s CPU     14.38s WALL (     149 calls)
     cdiaghg:para :     25.46s CPU     28.10s WALL (     298 calls)

     Called by h_psi:
     h_psi:pot    :    305.75s CPU    307.43s WALL (     158 calls)
     h_psi:calbec :     24.74s CPU     24.88s WALL (     158 calls)
     vloc_psi     :    254.49s CPU    255.95s WALL (     158 calls)
     add_vuspsi   :     26.52s CPU     26.59s WALL (     158 calls)

     General routines
     calbec       :     24.74s CPU     24.88s WALL (     158 calls)
     fft          :      0.13s CPU      0.19s WALL (      19 calls)
     fftw         :    176.40s CPU    177.41s WALL (   55434 calls)
     davcio       :      0.00s CPU      0.30s WALL (       4 calls)
 
     Parallel routines
     fft_scatter  :     72.63s CPU     73.13s WALL (   55453 calls)
 
     PWSCF        : 12m31.31s CPU    13m 9.82s WALL

 
   This run was terminated on:  17:47: 5  10May2019            

=------------------------------------------------------------------------------=
   JOB DONE.
=------------------------------------------------------------------------------=
TACC:  Shutdown complete. Exiting. 
