
                                 *****************
                                 * O   R   C   A *
                                 *****************

           --- An Ab Initio, DFT and Semiempirical electronic structure package ---

                  #######################################################
                  #                        -***-                        #
                  #          Department of theory and spectroscopy      #
                  #               Directorship: Frank Neese             #
                  #        Max Planck Institute fuer Kohlenforschung    #
                  #                Kaiser Wilhelm Platz 1               #
                  #                 D-45470 Muelheim/Ruhr               #
                  #                      Germany                        #
                  #                                                     #
                  #                  All rights reserved                #
                  #                        -***-                        #
                  #######################################################


                         Program Version 4.2.1 -  RELEASE  -


 With contributions from (in alphabetic order):
   Daniel Aravena         : Magnetic Suceptibility
   Michael Atanasov       : Ab Initio Ligand Field Theory (pilot matlab implementation)
   Alexander A. Auer      : GIAO ZORA, VPT2
   Ute Becker             : Parallelization
   Giovanni Bistoni       : ED, misc. LED, open-shell LED, HFLD
   Martin Brehm           : Molecular dynamics
   Dmytro Bykov           : SCF Hessian
   Vijay G. Chilkuri      : MRCI spin determinant printing, contributions to CSF-ICE
   Dipayan Datta          : RHF DLPNO-CCSD density
   Achintya Kumar Dutta   : EOM-CC, STEOM-CC
   Dmitry Ganyushin       : Spin-Orbit,Spin-Spin,Magnetic field MRCI
   Miquel Garcia          : C-PCM Hessian, Gaussian charge scheme
   Yang Guo               : DLPNO-NEVPT2, CIM, IAO-localization
   Andreas Hansen         : Spin unrestricted coupled pair/coupled cluster methods
   Benjamin Helmich-Paris : CASSCF linear response (MC-RPA)
   Lee Huntington         : MR-EOM, pCC
   Robert Izsak           : Overlap fitted RIJCOSX, COSX-SCS-MP3, EOM
   Christian Kollmar      : KDIIS, OOCD, Brueckner-CCSD(T), CCSD density
   Simone Kossmann        : Meta GGA functionals, TD-DFT gradient, OOMP2, MP2 Hessian
   Martin Krupicka        : AUTO-CI
   Lucas Lang             : DCDCAS
   Dagmar Lenk            : GEPOL surface, SMD
   Dimitrios Liakos       : Extrapolation schemes; Compound Job, initial MDCI parallelization
   Dimitrios Manganas     : Further ROCIS development; embedding schemes
   Dimitrios Pantazis     : SARC Basis sets
   Taras Petrenko         : DFT Hessian,TD-DFT gradient, ASA, ECA, R-Raman, ABS, FL, XAS/XES, NRVS
   Peter Pinski           : DLPNO-MP2, DLPNO-MP2 Gradient
   Christoph Reimann      : Effective Core Potentials
   Marius Retegan         : Local ZFS, SOC
   Christoph Riplinger    : Optimizer, TS searches, QM/MM, DLPNO-CCSD(T), (RO)-DLPNO pert. Triples
   Tobias Risthaus        : Range-separated hybrids, TD-DFT gradient, RPA, STAB
   Michael Roemelt        : Original ROCIS implementation
   Masaaki Saitow         : Open-shell DLPNO-CCSD energy and density
   Barbara Sandhoefer     : DKH picture change effects
   Avijit Sen             : IP-ROCIS
   Kantharuban Sivalingam : CASSCF convergence, NEVPT2, FIC-MRCI
   Bernardo de Souza      : ESD, SOC TD-DFT
   Georgi Stoychev        : AutoAux, RI-MP2 NMR
   Willem Van den Heuvel  : Paramagnetic NMR
   Boris Wezisla          : Elementary symmetry handling
   Frank Wennmohs         : Technical directorship


 We gratefully acknowledge several colleagues who have allowed us to
 interface, adapt or use parts of their codes:
   Stefan Grimme, W. Hujo, H. Kruse,             : VdW corrections, initial TS optimization,
                  C. Bannwarth                     DFT functionals, gCP, sTDA/sTD-DF
   Ed Valeev, F. Pavosevic, A. Kumar             : LibInt (2-el integral package), F12 methods
   Garnet Chan, S. Sharma, J. Yang, R. Olivares  : DMRG
   Ulf Ekstrom                                   : XCFun DFT Library
   Mihaly Kallay                                 : mrcc  (arbitrary order and MRCC methods)
   Andreas Klamt, Michael Diedenhofen            : otool_cosmo (COSMO solvation model)
   Jiri Pittner, Ondrej Demel                    : Mk-CCSD
   Frank Weinhold                                : gennbo (NPA and NBO analysis)
   Christopher J. Cramer and Donald G. Truhlar   : smd solvation model
   Lars Goerigk                                  : TD-DFT with DH, B97 family of functionals
   V. Asgeirsson, H. Jonsson                     : NEB implementation
   FAccTs GmbH                                   : IRC, NEB, NEB-TS, Multilevel, MM, QM/MM, CI optimization
   S Lehtola, MJT Oliveira, MAL Marques          : LibXC Library


 Your calculation uses the libint2 library for the computation of 2-el integrals
 For citations please refer to: http://libint.valeyev.net

 Your ORCA version has been built with support for libXC version: 4.2.3
 For citations please refer to: https://tddft.org/programs/libxc/

 This ORCA versions uses:
   CBLAS   interface :  Fast vector & matrix operations
   LAPACKE interface :  Fast linear algebra routines
   SCALAPACK package :  Parallel linear algebra routines




***************************************
The coordinates will be read from file: nv.xyz
***************************************


----- Orbital basis set information -----
Your calculation utilizes the basis: EPR-II
   V. Barone, in Recent Advances in Density Functional Methods, Part 1 (ed. D. P. Chong), World Scientific, Singapore, 1995, p. 287.

----- AuxJ basis set information -----
Your calculation utilizes the AutoAux generation procedure.
  G. L. Stoychev, A. A. Auer, F. Neese, J. Chem. Theory Comput. 13, 554 (2017)

----- AuxC basis set information -----
Your calculation utilizes the AutoAux generation procedure.
  G. L. Stoychev, A. A. Auer, F. Neese, J. Chem. Theory Comput. 13, 554 (2017)

----- AuxJK basis set information -----
Your calculation utilizes the AutoAux generation procedure.
  G. L. Stoychev, A. A. Auer, F. Neese, J. Chem. Theory Comput. 13, 554 (2017)

================================================================================
                                        WARNINGS
                       Please study these warnings very carefully!
================================================================================


WARNING: your system is open-shell and RHF/RKS was chosen
  ===> : WILL SWITCH to UHF/UKS


INFO   : the flag for use of LIBINT has been found!

================================================================================
                                       INPUT FILE
================================================================================
NAME = zfs.in
|  1> # Use EPR-II is a special basis set for epr, autoaux creates a large auxiliary basis
|  2> !PBE EPR-II AUTOAUX RIJCOSX
|  3> 
|  4> # use original (unoptimized) cluster xyz
|  5> *xyzfile -1 3 nv.xyz
|  6> 
|  7> # Parallelization
|  8> %PAL NPROCS 72 END
|  9> 
| 10> # ZFS calculation
| 11> %EPRNMR DTENSOR SSANDSO
| 12>     DSS     UNO
| 13>     DSOC    CP
| 14> END
| 15> 
| 16>                          ****END OF INPUT****
================================================================================

                       ****************************
                       * Single Point Calculation *
                       ****************************

---------------------------------
CARTESIAN COORDINATES (ANGSTROEM)
---------------------------------
  C      1.499396    0.349580   -2.249811
  C      0.995104   -1.062372   -4.258023
  C      0.842930    2.778398   -2.199697
  C     -2.827536   -0.659226   -2.199804
  C      1.984763   -2.119129   -2.199700
  C     -0.575014    2.434405   -0.144983
  C      0.560891   -2.437697   -0.144986
  C     -2.391549    0.733106   -0.145035
  C      2.395768   -0.719219   -0.144933
  C      1.830668    1.704595   -0.144931
  C     -1.820743   -1.715183   -0.145037
  C      0.971954   -1.037802    0.395617
  C     -1.384752   -0.322849    0.395566
  C      0.412769    1.360643    0.395618
  C     -0.997382    1.065058   -3.737621
  C      1.421170    0.331343   -3.737569
  C     -0.423523   -1.396328   -3.737623
  C     -0.574102    2.433770   -1.693673
  C      0.561428   -2.436721   -1.693676
  C     -2.390926    0.732200   -1.693726
  C      2.394808   -0.719645   -1.693623
  C      1.829618    1.704555   -1.693621
  C     -1.820586   -1.714092   -1.693727
  C     -1.052349    1.123701   -2.249865
  C     -0.446887   -1.473237   -2.249867
  C      0.422664    1.392927   -4.258021
  C     -1.417467   -0.330472   -4.258075
  N      0.000000    0.000000    0.000000
  H      1.686255   -1.800348   -3.907906
  H      0.990229   -1.057132   -5.328003
  H      0.848051    2.795203   -3.269544
  H      1.134751    3.740357   -1.833101
  H     -3.804182   -0.886927   -1.826663
  H     -2.851438   -0.664797   -3.269519
  H      1.996788   -2.131935   -3.269548
  H      2.671922   -2.852845   -1.833106
  H     -1.561395    2.216095    0.207581
  H     -0.266480    3.398040    0.203028
  H      1.256165   -3.170508    0.207839
  H     -0.424039   -2.669813    0.202756
  H     -3.373830    0.497375    0.207753
  H     -2.100112    1.702128    0.202744
  H      2.699886    0.244155    0.207668
  H      3.076022   -1.468246    0.203076
  H      2.117650    2.673130    0.207895
  H      2.524136    0.967681    0.202848
  H     -1.138506   -2.460254    0.207562
  H     -2.809557   -1.929798    0.202936
  H      0.980469   -1.046926    1.465539
  H     -1.396943   -0.325693    1.465488
  H      0.416371    1.372590    1.465541
  H     -1.684313    1.798529   -4.105093
  H      2.399851    0.559519   -4.105005
  H     -0.715247   -2.357968   -4.105096
  H     -1.260811    3.177813   -2.039696
  H      0.274578   -3.407745   -2.039701
  H     -3.088421    1.466141   -2.039749
  H      3.382533   -0.496948   -2.039611
  H      2.813988    1.941644   -2.039609
  H     -2.121578   -2.680825   -2.039752
  H      0.420675    1.386292   -5.328007
  H      0.716162    2.360411   -3.907684
  H     -2.402159   -0.560049   -3.907994
  H     -1.410460   -0.328837   -5.328055

----------------------------
CARTESIAN COORDINATES (A.U.)
----------------------------
  NO LB      ZA    FRAG     MASS         X           Y           Z
   0 C     6.0000    0    12.011    2.833447    0.660610   -4.251526
   1 C     6.0000    0    12.011    1.880474   -2.007592   -8.046497
   2 C     6.0000    0    12.011    1.592906    5.250410   -4.156825
   3 C     6.0000    0    12.011   -5.343269   -1.245756   -4.157026
   4 C     6.0000    0    12.011    3.750658   -4.004574   -4.156831
   5 C     6.0000    0    12.011   -1.086620    4.600358   -0.273977
   6 C     6.0000    0    12.011    1.059931   -4.606580   -0.273984
   7 C     6.0000    0    12.011   -4.519372    1.385369   -0.274077
   8 C     6.0000    0    12.011    4.527345   -1.359128   -0.273883
   9 C     6.0000    0    12.011    3.459461    3.221217   -0.273880
  10 C     6.0000    0    12.011   -3.440706   -3.241225   -0.274081
  11 C     6.0000    0    12.011    1.836728   -1.961161    0.747607
  12 C     6.0000    0    12.011   -2.616802   -0.610097    0.747512
  13 C     6.0000    0    12.011    0.780021    2.571243    0.747611
  14 C     6.0000    0    12.011   -1.884780    2.012668   -7.063080
  15 C     6.0000    0    12.011    2.685622    0.626148   -7.062982
  16 C     6.0000    0    12.011   -0.800342   -2.638678   -7.063084
  17 C     6.0000    0    12.011   -1.084896    4.599158   -3.200578
  18 C     6.0000    0    12.011    1.060944   -4.604736   -3.200585
  19 C     6.0000    0    12.011   -4.518195    1.383657   -3.200678
  20 C     6.0000    0    12.011    4.525531   -1.359932   -3.200484
  21 C     6.0000    0    12.011    3.457477    3.221141   -3.200481
  22 C     6.0000    0    12.011   -3.440408   -3.239164   -3.200681
  23 C     6.0000    0    12.011   -1.988652    2.123487   -4.251629
  24 C     6.0000    0    12.011   -0.844494   -2.784014   -4.251633
  25 C     6.0000    0    12.011    0.798719    2.632250   -8.046494
  26 C     6.0000    0    12.011   -2.678624   -0.624501   -8.046595
  27 N     7.0000    0    14.007    0.000000    0.000000    0.000000
  28 H     1.0000    0     1.008    3.186560   -3.402165   -7.384872
  29 H     1.0000    0     1.008    1.871262   -1.997691  -10.068467
  30 H     1.0000    0     1.008    1.602584    5.282168   -6.178543
  31 H     1.0000    0     1.008    2.144369    7.068251   -3.464060
  32 H     1.0000    0     1.008   -7.188862   -1.676048   -3.451893
  33 H     1.0000    0     1.008   -5.388436   -1.256284   -6.178495
  34 H     1.0000    0     1.008    3.773382   -4.028773   -6.178550
  35 H     1.0000    0     1.008    5.049201   -5.391095   -3.464069
  36 H     1.0000    0     1.008   -2.950608    4.187812    0.392271
  37 H     1.0000    0     1.008   -0.503573    6.421364    0.383668
  38 H     1.0000    0     1.008    2.373809   -5.991392    0.392758
  39 H     1.0000    0     1.008   -0.801318   -5.045215    0.383154
  40 H     1.0000    0     1.008   -6.375614    0.939902    0.392597
  41 H     1.0000    0     1.008   -3.968636    3.216555    0.383131
  42 H     1.0000    0     1.008    5.102045    0.461387    0.392436
  43 H     1.0000    0     1.008    5.812839   -2.774582    0.383759
  44 H     1.0000    0     1.008    4.001778    5.051483    0.392864
  45 H     1.0000    0     1.008    4.769927    1.828653    0.383326
  46 H     1.0000    0     1.008   -2.151465   -4.649207    0.392235
  47 H     1.0000    0     1.008   -5.309293   -3.646789    0.383494
  48 H     1.0000    0     1.008    1.852817   -1.978404    2.769468
  49 H     1.0000    0     1.008   -2.639840   -0.615470    2.769372
  50 H     1.0000    0     1.008    0.786827    2.593820    2.769471
  51 H     1.0000    0     1.008   -3.182891    3.398727   -7.757501
  52 H     1.0000    0     1.008    4.535062    1.057337   -7.757336
  53 H     1.0000    0     1.008   -1.351622   -4.455913   -7.757507
  54 H     1.0000    0     1.008   -2.382588    6.005196   -3.854467
  55 H     1.0000    0     1.008    0.518876   -6.439705   -3.854476
  56 H     1.0000    0     1.008   -5.836271    2.770605   -3.854568
  57 H     1.0000    0     1.008    6.392062   -0.939096   -3.854305
  58 H     1.0000    0     1.008    5.317667    3.669175   -3.854302
  59 H     1.0000    0     1.008   -4.009201   -5.066025   -3.854573
  60 H     1.0000    0     1.008    0.794960    2.619713  -10.068475
  61 H     1.0000    0     1.008    1.353350    4.460530   -7.384452
  62 H     1.0000    0     1.008   -4.539423   -1.058339   -7.385038
  63 H     1.0000    0     1.008   -2.665383   -0.621412  -10.068564

--------------------------------
INTERNAL COORDINATES (ANGSTROEM)
--------------------------------
 C      0   0   0     0.000000000000     0.00000000     0.00000000
 C      1   0   0     2.506159188390     0.00000000     0.00000000
 C      1   2   0     2.516468737301   120.47980033     0.00000000
 C      2   1   3     4.360203421537    75.28951497   283.77948096
 C      1   2   3     2.516468891427    60.13666439   174.71907256
 C      3   1   2     2.520068779931    91.79194712   121.28833102
 C      5   1   2     2.520068762913    91.79201993   236.05607763
 C      6   3   1     2.488818367859   120.26272267   304.19020217
 C      7   5   1     2.513948947618    60.08027953   306.41229826
 C      9   7   5     2.488817352413   120.00002880   109.82545099
 C      7   5   1     2.488816776369   120.26270160    55.80983231
 C      7   5   1     1.555934702323    91.16206223   325.68709311
 C      8   6   3     1.555934051920    89.52038818    91.06561728
 C      6   3   1     1.555934062197    91.16212210    34.31292442
 C      3   1   2     2.947455098538    65.88562640    32.41919379
 C      1   2   3     1.489925410399    35.15414080   323.08151360
 C      2   1   3     1.547529031281    92.09616881   273.73521375
 C      3   1   2     1.543634497550    91.74891425    85.78589531
 C      5   1   2     1.543634474938    91.74900362   271.55851520
 C      4   2   1     1.543634426463    89.43441784    30.89183769
 C      1   2   3     1.501448810717    90.89532351   191.81515952
 C      1   2   3     1.501449345328   148.15946930   329.09681938
 C      4   2   1     1.543633746153    61.29331665   278.87882692
 C     15   3   1     1.489925437869    58.60967735    79.25168914
 C     17   2   1     1.489925476609   111.18022706   326.95804092
 C     16   1   2     1.547528289897   111.18021290   121.75553486
 C     17   2   1     1.547528292333   109.09004219    89.92306829
 N     12   7   5     1.475886138818   111.44049748    93.52608413
 H      2   1   3     1.069990716114    89.79352601   164.26253076
 H      2   1   3     1.070004294792   143.07770562    40.86734296
 H      3   1   2     1.069991509775    89.65616669   336.17389655
 H      3   1   2     1.070008907524   143.45442869   213.40182392
 H      4   2   1     1.070008629582   160.93593852   213.27452146
 H      4   2   1     1.069996784546    63.07524129   143.53512797
 H     29   2   1     0.783506148419   144.53757496    32.14134799
 H      5   1   2     1.070008457194   143.45441157   143.94258785
 H      6   3   1     1.070002931530   144.60622174   267.56155988
 H      6   3   1     1.069998802058    88.85452190   143.28877490
 H      7   5   1     1.070001690945    89.32902227   216.43024001
 H      7   5   1     1.069995563851   144.34073004    91.60649894
 H      8   6   3     1.070002207399   145.14813575   215.49452433
 H     37   6   3     0.744581472826   143.67474243    62.06104372
 H      9   7   5     1.070002897783   145.37732649   145.27378860
 H      9   7   5     1.069998336410    89.16959392   270.84373777
 H     10   9   7     1.070002153486   145.14812970   144.76011286
 H     43   9   7     0.744581167100   143.67473630   300.54055369
 H     40   7   5     0.744581003299   145.51897271   298.58473534
 H     11   7   5     1.069998828003   145.69948100   144.51454581
 H     12   7   5     1.069995472820   109.98972406   211.05044894
 H     13   8   6     1.069995477085   109.98975807    90.79100386
 H     14   6   3     1.069995466062   109.98975811   148.94952879
 H     15   3   1     1.069995020048   100.46116416   182.87308408
 H     16   1   2     1.069995530283   106.99377721   240.87773466
 H     17   2   1     1.069995470421   109.17096220   209.14698708
 H     18   3   1     1.070001082961   109.14081207   209.46733767
 H     19   5   1     1.070001545168   109.14088143   150.53266272
 H     20   4   2     1.070001076562   109.14085337   120.92648834
 H     21   1   2     1.070001583550   106.41034518    92.35939564
 H     22   1   2     1.070001596217   106.41041636   291.94871446
 H     23   4   2     1.070001549258   109.14085325   258.30749263
 H     26  16   1     1.070008557445   109.46621822   177.47400827
 H     31   3   1     0.783365299396   143.60830345    31.99437326
 H     34   4   2     0.787701494175   142.83583395   341.07939124
 H     27  17   2     1.070004297033   109.46009779    59.54970984

---------------------------
INTERNAL COORDINATES (A.U.)
---------------------------
 C      0   0   0     0.000000000000     0.00000000     0.00000000
 C      1   0   0     4.735954514067     0.00000000     0.00000000
 C      1   2   0     4.755436738073   120.47980033     0.00000000
 C      2   1   3     8.239590354892    75.28951497   283.77948096
 C      1   2   3     4.755437029329    60.13666439   174.71907256
 C      3   1   2     4.762239832714    91.79194712   121.28833102
 C      5   1   2     4.762239800554    91.79201993   236.05607763
 C      6   3   1     4.703185112326   120.26272267   304.19020217
 C      7   5   1     4.750675025658    60.08027953   306.41229826
 C      9   7   5     4.703183193412   120.00002880   109.82545099
 C      7   5   1     4.703182104845   120.26270160    55.80983231
 C      7   5   1     2.940290469654    91.16206223   325.68709311
 C      8   6   3     2.940289240570    89.52038818    91.06561728
 C      6   3   1     2.940289259992    91.16212210    34.31292442
 C      3   1   2     5.569882928267    65.88562640    32.41919379
 C      1   2   3     2.815550985624    35.15414080   323.08151360
 C      2   1   3     2.924406053414    92.09616881   273.73521375
 C      3   1   2     2.917046451243    91.74891425    85.78589531
 C      5   1   2     2.917046408513    91.74900362   271.55851520
 C      4   2   1     2.917046316907    89.43441784    30.89183769
 C      1   2   3     2.837327056357    90.89532351   191.81515952
 C      1   2   3     2.837328066625   148.15946930   329.09681938
 C      4   2   1     2.917045031309    61.29331665   278.87882692
 C     15   3   1     2.815551037536    58.60967735    79.25168914
 C     17   2   1     2.815551110743   111.18022706   326.95804092
 C     16   1   2     2.924404652400   111.18021290   121.75553486
 C     17   2   1     2.924404657005   109.09004219    89.92306829
 N     12   7   5     2.789020607217   111.44049748    93.52608413
 H      2   1   3     2.021989419294    89.79352601   164.26253076
 H      2   1   3     2.022015079277   143.07770562    40.86734296
 H      3   1   2     2.021990919097    89.65616669   336.17389655
 H      3   1   2     2.022023796077   143.45442869   213.40182392
 H      4   2   1     2.022023270842   160.93593852   213.27452146
 H      4   2   1     2.022000886969    63.07524129   143.53512797
 H     29   2   1     1.480612044755   144.53757496    32.14134799
 H      5   1   2     2.022022945076   143.45441157   143.94258785
 H      6   3   1     2.022012503084   144.60622174   267.56155988
 H      6   3   1     2.022004699514    88.85452190   143.28877490
 H      7   5   1     2.022010158719    89.32902227   216.43024001
 H      7   5   1     2.021998580189   144.34073004    91.60649894
 H      8   6   3     2.022011134675   145.14813575   215.49452433
 H     37   6   3     1.407055068033   143.67474243    62.06104372
 H      9   7   5     2.022012439311   145.37732649   145.27378860
 H      9   7   5     2.022003819567    89.16959392   270.84373777
 H     10   9   7     2.022011032794   145.14812970   144.76011286
 H     43   9   7     1.407054490295   143.67473630   300.54055369
 H     40   7   5     1.407054180755   145.51897271   298.58473534
 H     11   7   5     2.022004748543   145.69948100   144.51454581
 H     12   7   5     2.021998408165   109.98972406   211.05044894
 H     13   8   6     2.021998416224   109.98975807    90.79100386
 H     14   6   3     2.021998395395   109.98975811   148.94952879
 H     15   3   1     2.021997552550   100.46116416   182.87308408
 H     16   1   2     2.021998516755   106.99377721   240.87773466
 H     17   2   1     2.021998403632   109.17096220   209.14698708
 H     18   3   1     2.022009009796   109.14081207   209.46733767
 H     19   5   1     2.022009883240   109.14088143   150.53266272
 H     20   4   2     2.022008997703   109.14085337   120.92648834
 H     21   1   2     2.022009955771   106.41034518    92.35939564
 H     22   1   2     2.022009979709   106.41041636   291.94871446
 H     23   4   2     2.022009890969   109.14085325   258.30749263
 H     26  16   1     2.022023134524   109.46621822   177.47400827
 H     31   3   1     1.480345878676   143.60830345    31.99437326
 H     34   4   2     1.488540099272   142.83583395   341.07939124
 H     27  17   2     2.022015083512   109.46009779    59.54970984

---------------------
BASIS SET INFORMATION
---------------------
There are 3 groups of distinct atoms

 Group   1 Type C   : 10s5p1d contracted to 6s2p1d pattern {511111/41/1}
 Group   2 Type N   : 10s5p1d contracted to 6s2p1d pattern {511111/41/1}
 Group   3 Type H   : 6s1p contracted to 4s1p pattern {3111/1}

Atom   0C    basis set group =>   1
Atom   1C    basis set group =>   1
Atom   2C    basis set group =>   1
Atom   3C    basis set group =>   1
Atom   4C    basis set group =>   1
Atom   5C    basis set group =>   1
Atom   6C    basis set group =>   1
Atom   7C    basis set group =>   1
Atom   8C    basis set group =>   1
Atom   9C    basis set group =>   1
Atom  10C    basis set group =>   1
Atom  11C    basis set group =>   1
Atom  12C    basis set group =>   1
Atom  13C    basis set group =>   1
Atom  14C    basis set group =>   1
Atom  15C    basis set group =>   1
Atom  16C    basis set group =>   1
Atom  17C    basis set group =>   1
Atom  18C    basis set group =>   1
Atom  19C    basis set group =>   1
Atom  20C    basis set group =>   1
Atom  21C    basis set group =>   1
Atom  22C    basis set group =>   1
Atom  23C    basis set group =>   1
Atom  24C    basis set group =>   1
Atom  25C    basis set group =>   1
Atom  26C    basis set group =>   1
Atom  27N    basis set group =>   2
Atom  28H    basis set group =>   3
Atom  29H    basis set group =>   3
Atom  30H    basis set group =>   3
Atom  31H    basis set group =>   3
Atom  32H    basis set group =>   3
Atom  33H    basis set group =>   3
Atom  34H    basis set group =>   3
Atom  35H    basis set group =>   3
Atom  36H    basis set group =>   3
Atom  37H    basis set group =>   3
Atom  38H    basis set group =>   3
Atom  39H    basis set group =>   3
Atom  40H    basis set group =>   3
Atom  41H    basis set group =>   3
Atom  42H    basis set group =>   3
Atom  43H    basis set group =>   3
Atom  44H    basis set group =>   3
Atom  45H    basis set group =>   3
Atom  46H    basis set group =>   3
Atom  47H    basis set group =>   3
Atom  48H    basis set group =>   3
Atom  49H    basis set group =>   3
Atom  50H    basis set group =>   3
Atom  51H    basis set group =>   3
Atom  52H    basis set group =>   3
Atom  53H    basis set group =>   3
Atom  54H    basis set group =>   3
Atom  55H    basis set group =>   3
Atom  56H    basis set group =>   3
Atom  57H    basis set group =>   3
Atom  58H    basis set group =>   3
Atom  59H    basis set group =>   3
Atom  60H    basis set group =>   3
Atom  61H    basis set group =>   3
Atom  62H    basis set group =>   3
Atom  63H    basis set group =>   3
---------------------------------
AUXILIARY/J BASIS SET INFORMATION
---------------------------------
There are 3 groups of distinct atoms

 Group   1 Type C   : 17s13p12d2f contracted to 17s13p12d2f pattern {11111111111111111/1111111111111/111111111111/11}
 Group   2 Type N   : 17s13p12d2f contracted to 17s13p12d2f pattern {11111111111111111/1111111111111/111111111111/11}
 Group   3 Type H   : 15s6p1d contracted to 15s6p1d pattern {111111111111111/111111/1}

Atom   0C    basis set group =>   1
Atom   1C    basis set group =>   1
Atom   2C    basis set group =>   1
Atom   3C    basis set group =>   1
Atom   4C    basis set group =>   1
Atom   5C    basis set group =>   1
Atom   6C    basis set group =>   1
Atom   7C    basis set group =>   1
Atom   8C    basis set group =>   1
Atom   9C    basis set group =>   1
Atom  10C    basis set group =>   1
Atom  11C    basis set group =>   1
Atom  12C    basis set group =>   1
Atom  13C    basis set group =>   1
Atom  14C    basis set group =>   1
Atom  15C    basis set group =>   1
Atom  16C    basis set group =>   1
Atom  17C    basis set group =>   1
Atom  18C    basis set group =>   1
Atom  19C    basis set group =>   1
Atom  20C    basis set group =>   1
Atom  21C    basis set group =>   1
Atom  22C    basis set group =>   1
Atom  23C    basis set group =>   1
Atom  24C    basis set group =>   1
Atom  25C    basis set group =>   1
Atom  26C    basis set group =>   1
Atom  27N    basis set group =>   2
Atom  28H    basis set group =>   3
Atom  29H    basis set group =>   3
Atom  30H    basis set group =>   3
Atom  31H    basis set group =>   3
Atom  32H    basis set group =>   3
Atom  33H    basis set group =>   3
Atom  34H    basis set group =>   3
Atom  35H    basis set group =>   3
Atom  36H    basis set group =>   3
Atom  37H    basis set group =>   3
Atom  38H    basis set group =>   3
Atom  39H    basis set group =>   3
Atom  40H    basis set group =>   3
Atom  41H    basis set group =>   3
Atom  42H    basis set group =>   3
Atom  43H    basis set group =>   3
Atom  44H    basis set group =>   3
Atom  45H    basis set group =>   3
Atom  46H    basis set group =>   3
Atom  47H    basis set group =>   3
Atom  48H    basis set group =>   3
Atom  49H    basis set group =>   3
Atom  50H    basis set group =>   3
Atom  51H    basis set group =>   3
Atom  52H    basis set group =>   3
Atom  53H    basis set group =>   3
Atom  54H    basis set group =>   3
Atom  55H    basis set group =>   3
Atom  56H    basis set group =>   3
Atom  57H    basis set group =>   3
Atom  58H    basis set group =>   3
Atom  59H    basis set group =>   3
Atom  60H    basis set group =>   3
Atom  61H    basis set group =>   3
Atom  62H    basis set group =>   3
Atom  63H    basis set group =>   3
---------------------------------
AUXILIARY/C BASIS SET INFORMATION
---------------------------------
There are 3 groups of distinct atoms

 Group   1 Type C   : 17s13p12d2f contracted to 17s13p12d2f pattern {11111111111111111/1111111111111/111111111111/11}
 Group   2 Type N   : 17s13p12d2f contracted to 17s13p12d2f pattern {11111111111111111/1111111111111/111111111111/11}
 Group   3 Type H   : 15s6p1d contracted to 15s6p1d pattern {111111111111111/111111/1}

Atom   0C    basis set group =>   1
Atom   1C    basis set group =>   1
Atom   2C    basis set group =>   1
Atom   3C    basis set group =>   1
Atom   4C    basis set group =>   1
Atom   5C    basis set group =>   1
Atom   6C    basis set group =>   1
Atom   7C    basis set group =>   1
Atom   8C    basis set group =>   1
Atom   9C    basis set group =>   1
Atom  10C    basis set group =>   1
Atom  11C    basis set group =>   1
Atom  12C    basis set group =>   1
Atom  13C    basis set group =>   1
Atom  14C    basis set group =>   1
Atom  15C    basis set group =>   1
Atom  16C    basis set group =>   1
Atom  17C    basis set group =>   1
Atom  18C    basis set group =>   1
Atom  19C    basis set group =>   1
Atom  20C    basis set group =>   1
Atom  21C    basis set group =>   1
Atom  22C    basis set group =>   1
Atom  23C    basis set group =>   1
Atom  24C    basis set group =>   1
Atom  25C    basis set group =>   1
Atom  26C    basis set group =>   1
Atom  27N    basis set group =>   2
Atom  28H    basis set group =>   3
Atom  29H    basis set group =>   3
Atom  30H    basis set group =>   3
Atom  31H    basis set group =>   3
Atom  32H    basis set group =>   3
Atom  33H    basis set group =>   3
Atom  34H    basis set group =>   3
Atom  35H    basis set group =>   3
Atom  36H    basis set group =>   3
Atom  37H    basis set group =>   3
Atom  38H    basis set group =>   3
Atom  39H    basis set group =>   3
Atom  40H    basis set group =>   3
Atom  41H    basis set group =>   3
Atom  42H    basis set group =>   3
Atom  43H    basis set group =>   3
Atom  44H    basis set group =>   3
Atom  45H    basis set group =>   3
Atom  46H    basis set group =>   3
Atom  47H    basis set group =>   3
Atom  48H    basis set group =>   3
Atom  49H    basis set group =>   3
Atom  50H    basis set group =>   3
Atom  51H    basis set group =>   3
Atom  52H    basis set group =>   3
Atom  53H    basis set group =>   3
Atom  54H    basis set group =>   3
Atom  55H    basis set group =>   3
Atom  56H    basis set group =>   3
Atom  57H    basis set group =>   3
Atom  58H    basis set group =>   3
Atom  59H    basis set group =>   3
Atom  60H    basis set group =>   3
Atom  61H    basis set group =>   3
Atom  62H    basis set group =>   3
Atom  63H    basis set group =>   3
----------------------------------
AUXILIARY/JK BASIS SET INFORMATION
----------------------------------
There are 3 groups of distinct atoms

 Group   1 Type C   : 17s13p12d2f contracted to 17s13p12d2f pattern {11111111111111111/1111111111111/111111111111/11}
 Group   2 Type N   : 17s13p12d2f contracted to 17s13p12d2f pattern {11111111111111111/1111111111111/111111111111/11}
 Group   3 Type H   : 15s6p1d contracted to 15s6p1d pattern {111111111111111/111111/1}

Atom   0C    basis set group =>   1
Atom   1C    basis set group =>   1
Atom   2C    basis set group =>   1
Atom   3C    basis set group =>   1
Atom   4C    basis set group =>   1
Atom   5C    basis set group =>   1
Atom   6C    basis set group =>   1
Atom   7C    basis set group =>   1
Atom   8C    basis set group =>   1
Atom   9C    basis set group =>   1
Atom  10C    basis set group =>   1
Atom  11C    basis set group =>   1
Atom  12C    basis set group =>   1
Atom  13C    basis set group =>   1
Atom  14C    basis set group =>   1
Atom  15C    basis set group =>   1
Atom  16C    basis set group =>   1
Atom  17C    basis set group =>   1
Atom  18C    basis set group =>   1
Atom  19C    basis set group =>   1
Atom  20C    basis set group =>   1
Atom  21C    basis set group =>   1
Atom  22C    basis set group =>   1
Atom  23C    basis set group =>   1
Atom  24C    basis set group =>   1
Atom  25C    basis set group =>   1
Atom  26C    basis set group =>   1
Atom  27N    basis set group =>   2
Atom  28H    basis set group =>   3
Atom  29H    basis set group =>   3
Atom  30H    basis set group =>   3
Atom  31H    basis set group =>   3
Atom  32H    basis set group =>   3
Atom  33H    basis set group =>   3
Atom  34H    basis set group =>   3
Atom  35H    basis set group =>   3
Atom  36H    basis set group =>   3
Atom  37H    basis set group =>   3
Atom  38H    basis set group =>   3
Atom  39H    basis set group =>   3
Atom  40H    basis set group =>   3
Atom  41H    basis set group =>   3
Atom  42H    basis set group =>   3
Atom  43H    basis set group =>   3
Atom  44H    basis set group =>   3
Atom  45H    basis set group =>   3
Atom  46H    basis set group =>   3
Atom  47H    basis set group =>   3
Atom  48H    basis set group =>   3
Atom  49H    basis set group =>   3
Atom  50H    basis set group =>   3
Atom  51H    basis set group =>   3
Atom  52H    basis set group =>   3
Atom  53H    basis set group =>   3
Atom  54H    basis set group =>   3
Atom  55H    basis set group =>   3
Atom  56H    basis set group =>   3
Atom  57H    basis set group =>   3
Atom  58H    basis set group =>   3
Atom  59H    basis set group =>   3
Atom  60H    basis set group =>   3
Atom  61H    basis set group =>   3
Atom  62H    basis set group =>   3
Atom  63H    basis set group =>   3


           ************************************************************
           *        Program running with 72 parallel MPI-processes    *
           *              working on a shared directory               *
           ************************************************************
------------------------------------------------------------------------------
                           ORCA GTO INTEGRAL CALCULATION
                           -- RI-GTO INTEGRALS CHOSEN --
------------------------------------------------------------------------------

                         BASIS SET STATISTICS AND STARTUP INFO

Gaussian basis set:
 # of primitive gaussian shells          ...  700
 # of primitive gaussian functions       ... 1164
 # of contracted shells                  ...  432
 # of contracted basis functions         ...  728
 Highest angular momentum                ...    2
 Maximum contraction depth               ...    5
Auxiliary gaussian basis set:
 # of primitive gaussian shells          ... 2024
 # of primitive gaussian functions       ... 5008
 # of contracted shells                  ... 2024
 # of contracted aux-basis functions     ... 5008
 Highest angular momentum                ...    3
 Maximum contraction depth               ...    1
Ratio of auxiliary to basis functions    ...  6.88
Integral package used                  ... LIBINT
 One Electron integrals                  ... done
 Ordering auxiliary basis shells         ... done
 Integral threshhold             Thresh  ...  1.000e-10
 Primitive cut-off               TCut    ...  1.000e-11
 Pre-screening matrix                    ... done
 Shell pair data                         ... 
 Ordering of the shell pairs             ... done (   0.016 sec) 66486 of 93528 pairs
 Determination of significant pairs      ... done (   0.000 sec)
 Creation of shell pair data             ... done (   0.012 sec)
 Storage of shell pair data              ... done (   0.151 sec)
 Shell pair data done in (   0.179 sec)
 Computing two index integrals           ... done
 Cholesky decomposition of the V-matrix  ... done


Timings:
 Total evaluation time                   ...   6.021 sec (  0.100 min)
 One electron matrix time                ...   0.934 sec (  0.016 min) = 15.5%
 Schwartz matrix evaluation time         ...   1.295 sec (  0.022 min) = 21.5%
 Two index repulsion integral time       ...   1.090 sec (  0.018 min) = 18.1%
 Cholesky decomposition of V             ...   2.336 sec (  0.039 min) = 38.8%
 Three index repulsion integral time     ...   0.000 sec (  0.000 min) =  0.0%



           ************************************************************
           *        Program running with 72 parallel MPI-processes    *
           *              working on a shared directory               *
           ************************************************************
-------------------------------------------------------------------------------
                                 ORCA SCF
-------------------------------------------------------------------------------

------------
SCF SETTINGS
------------
Hamiltonian:
 Density Functional     Method          .... DFT(GTOs)
 Exchange Functional    Exchange        .... PBE
   PBE kappa parameter   XKappa         ....  0.804000
   PBE mue parameter    XMuePBE         ....  0.219520
 Correlation Functional Correlation     .... PBE
   PBE beta parameter  CBetaPBE         ....  0.066725
 LDA part of GGA corr.  LDAOpt          .... PW91-LDA
 Gradients option       PostSCFGGA      .... off
   Density functional embedding theory  .... OFF
   NL short-range parameter             ....  6.400000
 RI-approximation to the Coulomb term is turned on
   Number of auxiliary basis functions  .... 5008
   RIJ-COSX (HFX calculated with COS-X)).... on


General Settings:
 Integral files         IntName         .... zfs
 Hartree-Fock type      HFTyp           .... UHF
 Total Charge           Charge          ....   -1
 Multiplicity           Mult            ....    3
 Number of Electrons    NEL             ....  206
 Basis Dimension        Dim             ....  728
 Nuclear Repulsion      ENuc            ....   3308.0184381484 Eh

Convergence Acceleration:
 DIIS                   CNVDIIS         .... on
   Start iteration      DIISMaxIt       ....    12
   Startup error        DIISStart       ....  0.200000
   # of expansion vecs  DIISMaxEq       ....     5
   Bias factor          DIISBfac        ....   1.050
   Max. coefficient     DIISMaxC        ....  10.000
 Newton-Raphson         CNVNR           .... off
 SOSCF                  CNVSOSCF        .... off
 Level Shifting         CNVShift        .... on
   Level shift para.    LevelShift      ....    0.2500
   Turn off err/grad.   ShiftErr        ....    0.0010
 Zerner damping         CNVZerner       .... off
 Static damping         CNVDamp         .... on
   Fraction old density DampFac         ....    0.7000
   Max. Damping (<1)    DampMax         ....    0.9800
   Min. Damping (>=0)   DampMin         ....    0.0000
   Turn off err/grad.   DampErr         ....    0.1000
 Fernandez-Rico         CNVRico         .... off

SCF Procedure:
 Maximum # iterations   MaxIter         ....   125
 SCF integral mode      SCFMode         .... Direct
   Integral package                     .... LIBINT
 Reset frequency        DirectResetFreq ....    20
 Integral Threshold     Thresh          ....  1.000e-10 Eh
 Primitive CutOff       TCut            ....  1.000e-11 Eh

Convergence Tolerance:
 Convergence Check Mode ConvCheckMode   .... Total+1el-Energy
 Convergence forced     ConvForced      .... 0
 Energy Change          TolE            ....  1.000e-06 Eh
 1-El. energy change                    ....  1.000e-03 Eh
 DIIS Error             TolErr          ....  1.000e-06


Diagonalization of the overlap matrix:
Smallest eigenvalue                        ... 1.744e-04
Time for diagonalization                   ...    0.167 sec
Threshold for overlap eigenvalues          ... 1.000e-08
Number of eigenvalues below threshold      ... 0
Time for construction of square roots      ...    0.272 sec
Total time needed                          ...    0.443 sec

-------------------
DFT GRID GENERATION
-------------------

General Integration Accuracy     IntAcc      ...  4.340
Radial Grid Type                 RadialGrid  ... Gauss-Chebyshev
Angular Grid (max. acc.)         AngularGrid ... Lebedev-110
Angular grid pruning method      GridPruning ... 3 (G Style)
Weight generation scheme         WeightScheme... Becke
Basis function cutoff            BFCut       ...    1.0000e-10
Integration weight cutoff        WCut        ...    1.0000e-14
Grids for H and He will be reduced by one unit

# of grid points (after initial pruning)     ...  74998 (   0.0 sec)
# of grid points (after weights+screening)   ...  62460 (   0.1 sec)
nearest neighbour list constructed           ...    0.0 sec
Grid point re-assignment to atoms done       ...    0.0 sec
Grid point division into batches done        ...    0.1 sec
Reduced shell lists constructed in    0.1 sec

Total number of grid points                  ...    62460
Total number of batches                      ...     1008
Average number of points per batch           ...       61
Average number of grid points per atom       ...      976
Average number of shells per batch           ...   226.80 (52.50%)
Average number of basis functions per batch  ...   454.00 (62.36%)
Average number of large shells per batch     ...   169.33 (74.66%)
Average number of large basis fcns per batch ...   336.67 (74.16%)
Maximum spatial batch extension              ...   2.12,  2.75,  2.51 au
Average spatial batch extension              ...   0.02,  0.03,  0.02 au

Time for grid setup =    0.407 sec

------------------------------
INITIAL GUESS: MODEL POTENTIAL
------------------------------
Loading Hartree-Fock densities                     ... done
Calculating cut-offs                               ... done
Setting up the integral package                    ... done
Initializing the effective Hamiltonian             ... done
Starting the Coulomb interaction                   ... done (   0.1 sec)
Reading the grid                                   ... done
Mapping shells                                     ... done
Starting the XC term evaluation                    ... done (   0.2 sec)
  promolecular density results
     # of electrons  =    204.983135765
     EX              =   -156.128018438
     EC              =     -7.167474713
     EX+EC           =   -163.295493151
Transforming the Hamiltonian                       ... done (   0.1 sec)
Diagonalizing the Hamiltonian                      ... done (   0.1 sec)
Back transforming the eigenvectors                 ... done (   0.1 sec)
Now organizing SCF variables                       ... done
                      ------------------
                      INITIAL GUESS DONE (   1.2 sec)
                      ------------------
--------------------
COSX GRID GENERATION
--------------------

General Integration Accuracy     IntAcc      ...  3.340
Radial Grid Type                 RadialGrid  ... Gauss-Chebyshev
Angular Grid (max. acc.)         AngularGrid ... Lebedev-50
Angular grid pruning method      GridPruning ... 3 (G Style)
Weight generation scheme         WeightScheme... Becke
Basis function cutoff            BFCut       ...    1.0000e-10
Integration weight cutoff        WCut        ...    1.0000e-14
Grids for H and He will be reduced by one unit

# of grid points (after initial pruning)     ...  27746 (   0.0 sec)
# of grid points (after weights+screening)   ...  23383 (   0.0 sec)
nearest neighbour list constructed           ...    0.0 sec
Grid point re-assignment to atoms done       ...    0.0 sec
Grid point division into batches done        ...    0.0 sec
Reduced shell lists constructed in    0.0 sec

Total number of grid points                  ...    23383
Total number of batches                      ...      394
Average number of points per batch           ...       59
Average number of grid points per atom       ...      365
Average number of shells per batch           ...   220.00 (50.93%)
Average number of basis functions per batch  ...   439.71 (60.40%)
Average number of large shells per batch     ...   164.86 (74.94%)
Average number of large basis fcns per batch ...   328.57 (74.72%)
Maximum spatial batch extension              ...   3.44,  3.03,  2.93 au
Average spatial batch extension              ...   0.04,  0.04,  0.04 au

Overlap Fitting                  UseSFitting ... on
Constructing numerical overlap ... done (      0.0 sec)
Inverting numerical overlap    ... done (      0.0 sec)
Obtaining analytic overlap     ... done (      0.0 sec)
Final contraction and storage  ... done (      0.1 sec)


General Integration Accuracy     IntAcc      ...  3.670
Radial Grid Type                 RadialGrid  ... Gauss-Chebyshev
Angular Grid (max. acc.)         AngularGrid ... Lebedev-50
Angular grid pruning method      GridPruning ... 3 (G Style)
Weight generation scheme         WeightScheme... Becke
Basis function cutoff            BFCut       ...    1.0000e-10
Integration weight cutoff        WCut        ...    1.0000e-14
Grids for H and He will be reduced by one unit

# of grid points (after initial pruning)     ...  35464 (   0.0 sec)
# of grid points (after weights+screening)   ...  29821 (   0.0 sec)
nearest neighbour list constructed           ...    0.0 sec
Grid point re-assignment to atoms done       ...    0.0 sec
Grid point division into batches done        ...    0.0 sec
Reduced shell lists constructed in    0.0 sec

Total number of grid points                  ...    29821
Total number of batches                      ...      499
Average number of points per batch           ...       59
Average number of grid points per atom       ...      466
Average number of shells per batch           ...   224.12 (51.88%)
Average number of basis functions per batch  ...   448.62 (61.62%)
Average number of large shells per batch     ...   168.12 (75.01%)
Average number of large basis fcns per batch ...   334.88 (74.64%)
Maximum spatial batch extension              ...   2.92,  3.44,  3.18 au
Average spatial batch extension              ...   0.03,  0.03,  0.03 au

Overlap Fitting                  UseSFitting ... on
Constructing numerical overlap ... done (      0.0 sec)
Inverting numerical overlap    ... done (      0.0 sec)
Obtaining analytic overlap     ... done (      0.0 sec)
Final contraction and storage  ... done (      0.1 sec)


General Integration Accuracy     IntAcc      ...  4.010
Radial Grid Type                 RadialGrid  ... Gauss-Chebyshev
Angular Grid (max. acc.)         AngularGrid ... Lebedev-110
Angular grid pruning method      GridPruning ... 3 (G Style)
Weight generation scheme         WeightScheme... Becke
Basis function cutoff            BFCut       ...    1.0000e-10
Integration weight cutoff        WCut        ...    1.0000e-14
Grids for H and He will be reduced by one unit

# of grid points (after initial pruning)     ...  65152 (   0.0 sec)
# of grid points (after weights+screening)   ...  54555 (   0.1 sec)
nearest neighbour list constructed           ...    0.0 sec
Grid point re-assignment to atoms done       ...    0.0 sec
Grid point division into batches done        ...    0.0 sec
Reduced shell lists constructed in    0.1 sec

Total number of grid points                  ...    54555
Total number of batches                      ...      886
Average number of points per batch           ...       61
Average number of grid points per atom       ...      852
Average number of shells per batch           ...   226.36 (52.40%)
Average number of basis functions per batch  ...   454.93 (62.49%)
Average number of large shells per batch     ...   169.79 (75.01%)
Average number of large basis fcns per batch ...   337.21 (74.12%)
Maximum spatial batch extension              ...   2.66,  2.40,  2.56 au
Average spatial batch extension              ...   0.03,  0.03,  0.03 au

Overlap Fitting                  UseSFitting ... on
Constructing numerical overlap ... done (      0.1 sec)
Inverting numerical overlap    ... done (      0.0 sec)
Obtaining analytic overlap     ... done (      0.0 sec)
Final contraction and storage  ... done (      0.1 sec)

Time for X-Grid setup             =    1.399 sec
--------------
SCF ITERATIONS
--------------
ITER       Energy         Delta-E        Max-DP      RMS-DP      [F,P]     Damp
               ***  Starting incremental Fock matrix formation  ***
  0  -1102.3563939620   0.000000000000 7.94014107  0.02046327  0.1512459 0.7000
  1  -1102.7815007472  -0.425106785175 5.10268201  0.01277519  0.0656507 0.7000
                               ***Turning on DIIS***
  2  -1102.8715274805  -0.090026733348 0.82329089  0.00363767  0.0352260 0.0000
  3  -1103.1248677183  -0.253340237779 4.61348742  0.01135360  0.0323197 0.0000
  4  -1103.1580633924  -0.033195674106 1.49107697  0.00365612  0.0198661 0.0000
  5  -1103.1674170155  -0.009353623049 0.67128264  0.00160924  0.0058005 0.0000
  6  -1103.1687578996  -0.001340884107 0.45746554  0.00108463  0.0014005 0.0000
  7  -1103.1689649430  -0.000207043382 0.27687922  0.00064258  0.0022482 0.0000
  8  -1103.1690700072  -0.000105064238 0.58323932  0.00132534  0.0005475 0.0000
  9  -1103.1691369700  -0.000066962788 0.10657935  0.00029207  0.0007568 0.0000
 10  -1103.1691435546  -0.000006584590 0.09797501  0.00022880  0.0005490 0.0000
 11  -1103.1691482819  -0.000004727317 0.03103067  0.00006761  0.0003910 0.0000
 12  -1103.1691502636  -0.000001981733 0.01098094  0.00002066  0.0000735 0.0000
 13  -1103.1691500755   0.000000188149 0.00542063  0.00001206  0.0000826 0.0000
                 **** Energy Check signals convergence ****

               *****************************************************
               *                     SUCCESS                       *
               *           SCF CONVERGED AFTER  14 CYCLES          *
               *****************************************************

Setting up the final grid:

General Integration Accuracy     IntAcc      ...  4.670
Radial Grid Type                 RadialGrid  ... Gauss-Chebyshev
Angular Grid (max. acc.)         AngularGrid ... Lebedev-302
Angular grid pruning method      GridPruning ... 3 (G Style)
Weight generation scheme         WeightScheme... Becke
Basis function cutoff            BFCut       ...    1.0000e-10
Integration weight cutoff        WCut        ...    1.0000e-14
Grids for H and He will be reduced by one unit

# of grid points (after initial pruning)     ... 296120 (   0.0 sec)
# of grid points (after weights+screening)   ... 239060 (   0.2 sec)
nearest neighbour list constructed           ...    0.0 sec
Grid point re-assignment to atoms done       ...    0.1 sec
Grid point division into batches done        ...    0.8 sec
Reduced shell lists constructed in    0.9 sec

Total number of grid points                  ...   239060
Total number of batches                      ...     3773
Average number of points per batch           ...       63
Average number of grid points per atom       ...     3735
Average number of shells per batch           ...   226.61 (52.46%)
Average number of basis functions per batch  ...   456.20 (62.67%)
Average number of large shells per batch     ...   167.59 (73.96%)
Average number of large basis fcns per batch ...   331.26 (72.61%)
Maximum spatial batch extension              ...   1.64,  2.00,  1.77 au
Average spatial batch extension              ...   0.02,  0.02,  0.02 au

Final grid set up in    1.4 sec
Final integration                            ... done (   0.9 sec)
Change in XC energy                          ...     0.000934593
Integrated number of electrons               ...   206.001555613
Previous integrated no of electrons          ...   206.004529396

----------------
TOTAL SCF ENERGY
----------------

Total Energy       :        -1103.16821571 Eh          -30018.73327 eV

Components:
Nuclear Repulsion  :         3308.01843815 Eh           90015.75801 eV
Electronic Energy  :        -4411.18665386 Eh         -120034.49129 eV
One Electron Energy:        -8103.21078458 Eh         -220499.57543 eV
Two Electron Energy:         3692.02413072 Eh          100465.08414 eV

Virial components:
Potential Energy   :        -2203.45043820 Eh          -59958.93468 eV
Kinetic Energy     :         1100.28222249 Eh           29940.20140 eV
Virial Ratio       :            2.00262296


DFT components:
N(Alpha)           :      104.000758670592 electrons
N(Beta)            :      102.000796942453 electrons
N(Total)           :      206.001555613045 electrons
E(X)               :     -159.755929812837 Eh       
E(C)               :       -7.077196220963 Eh       
E(XC)              :     -166.833126033800 Eh       
DFET-embed. en.    :        0.000000000000 Eh       

---------------
SCF CONVERGENCE
---------------

  Last Energy change         ...   -2.2613e-07  Tolerance :   1.0000e-06
  Last MAX-Density change    ...    6.8469e-04  Tolerance :   1.0000e-05
  Last RMS-Density change    ...    2.0187e-06  Tolerance :   1.0000e-06
  Last DIIS Error            ...    3.3877e-05  Tolerance :   1.0000e-06

             **** THE GBW FILE WAS UPDATED (zfs.gbw) ****
             **** DENSITY FILE WAS UPDATED (zfs.scfp) ****
             **** ENERGY FILE WAS UPDATED (zfs.en.tmp) ****
----------------------
UHF SPIN CONTAMINATION
----------------------

Warning: in a DFT calculation there is little theoretical justification to 
         calculate <S**2> as in Hartree-Fock theory. We will do it anyways
         but you should keep in mind that the values have only limited relevance

Expectation value of <S**2>     :     2.011080
Ideal value S*(S+1) for S=1.0   :     2.000000
Deviation                       :     0.011080

             **** THE GBW FILE WAS UPDATED (zfs.gbw) ****
             **** DENSITY FILE WAS UPDATED (zfs.scfp) ****
----------------
ORBITAL ENERGIES
----------------
                 SPIN UP ORBITALS
  NO   OCC          E(Eh)            E(eV) 
   0   1.0000     -13.855805      -377.0356 
   1   1.0000      -9.801589      -266.7148 
   2   1.0000      -9.801301      -266.7070 
   3   1.0000      -9.801147      -266.7028 
   4   1.0000      -9.762997      -265.6646 
   5   1.0000      -9.762892      -265.6618 
   6   1.0000      -9.762865      -265.6611 
   7   1.0000      -9.762799      -265.6593 
   8   1.0000      -9.762758      -265.6582 
   9   1.0000      -9.762737      -265.6576 
  10   1.0000      -9.755824      -265.4695 
  11   1.0000      -9.755824      -265.4695 
  12   1.0000      -9.755464      -265.4597 
  13   1.0000      -9.749116      -265.2869 
  14   1.0000      -9.749030      -265.2846 
  15   1.0000      -9.748968      -265.2829 
  16   1.0000      -9.748453      -265.2689 
  17   1.0000      -9.748430      -265.2683 
  18   1.0000      -9.748316      -265.2652 
  19   1.0000      -9.739848      -265.0347 
  20   1.0000      -9.739725      -265.0314 
  21   1.0000      -9.739648      -265.0293 
  22   1.0000      -9.735998      -264.9300 
  23   1.0000      -9.735400      -264.9137 
  24   1.0000      -9.735280      -264.9104 
  25   1.0000      -9.734976      -264.9022 
  26   1.0000      -9.734479      -264.8887 
  27   1.0000      -9.734320      -264.8843 
  28   1.0000      -0.729749       -19.8575 
  29   1.0000      -0.667578       -18.1657 
  30   1.0000      -0.652432       -17.7536 
  31   1.0000      -0.652318       -17.7505 
  32   1.0000      -0.609404       -16.5827 
  33   1.0000      -0.598260       -16.2795 
  34   1.0000      -0.598002       -16.2725 
  35   1.0000      -0.582536       -15.8516 
  36   1.0000      -0.582430       -15.8487 
  37   1.0000      -0.545805       -14.8521 
  38   1.0000      -0.521639       -14.1945 
  39   1.0000      -0.521580       -14.1929 
  40   1.0000      -0.519010       -14.1230 
  41   1.0000      -0.516010       -14.0413 
  42   1.0000      -0.515647       -14.0315 
  43   1.0000      -0.501970       -13.6593 
  44   1.0000      -0.444706       -12.1011 
  45   1.0000      -0.444610       -12.0984 
  46   1.0000      -0.423896       -11.5348 
  47   1.0000      -0.405293       -11.0286 
  48   1.0000      -0.405283       -11.0283 
  49   1.0000      -0.400340       -10.8938 
  50   1.0000      -0.397621       -10.8198 
  51   1.0000      -0.384109       -10.4521 
  52   1.0000      -0.384008       -10.4494 
  53   1.0000      -0.358471        -9.7545 
  54   1.0000      -0.358068        -9.7435 
  55   1.0000      -0.357854        -9.7377 
  56   1.0000      -0.346539        -9.4298 
  57   1.0000      -0.312920        -8.5150 
  58   1.0000      -0.309049        -8.4096 
  59   1.0000      -0.308894        -8.4054 
  60   1.0000      -0.301333        -8.1997 
  61   1.0000      -0.301246        -8.1973 
  62   1.0000      -0.282115        -7.6767 
  63   1.0000      -0.279293        -7.5999 
  64   1.0000      -0.279242        -7.5986 
  65   1.0000      -0.275752        -7.5036 
  66   1.0000      -0.275709        -7.5024 
  67   1.0000      -0.242720        -6.6048 
  68   1.0000      -0.242667        -6.6033 
  69   1.0000      -0.238293        -6.4843 
  70   1.0000      -0.231142        -6.2897 
  71   1.0000      -0.228494        -6.2176 
  72   1.0000      -0.226375        -6.1600 
  73   1.0000      -0.226284        -6.1575 
  74   1.0000      -0.212529        -5.7832 
  75   1.0000      -0.212431        -5.7806 
  76   1.0000      -0.210182        -5.7193 
  77   1.0000      -0.197074        -5.3627 
  78   1.0000      -0.190658        -5.1881 
  79   1.0000      -0.190626        -5.1872 
  80   1.0000      -0.179337        -4.8800 
  81   1.0000      -0.179301        -4.8790 
  82   1.0000      -0.171498        -4.6667 
  83   1.0000      -0.166820        -4.5394 
  84   1.0000      -0.166786        -4.5385 
  85   1.0000      -0.161139        -4.3848 
  86   1.0000      -0.158722        -4.3190 
  87   1.0000      -0.156239        -4.2515 
  88   1.0000      -0.156182        -4.2499 
  89   1.0000      -0.146990        -3.9998 
  90   1.0000      -0.146897        -3.9973 
  91   1.0000      -0.135140        -3.6774 
  92   1.0000      -0.119953        -3.2641 
  93   1.0000      -0.119864        -3.2617 
  94   1.0000      -0.095576        -2.6008 
  95   1.0000      -0.095546        -2.5999 
  96   1.0000      -0.092651        -2.5212 
  97   1.0000      -0.077133        -2.0989 
  98   1.0000      -0.059048        -1.6068 
  99   1.0000      -0.056846        -1.5468 
 100   1.0000      -0.056572        -1.5394 
 101   1.0000       0.001966         0.0535 
 102   1.0000       0.047237         1.2854 
 103   1.0000       0.047620         1.2958 
 104   0.0000       0.096847         2.6353 
 105   0.0000       0.113757         3.0955 
 106   0.0000       0.116274         3.1640 
 107   0.0000       0.117200         3.1892 
 108   0.0000       0.124436         3.3861 
 109   0.0000       0.124886         3.3983 
 110   0.0000       0.126517         3.4427 
 111   0.0000       0.130530         3.5519 
 112   0.0000       0.131157         3.5690 
 113   0.0000       0.141315         3.8454 
 114   0.0000       0.141964         3.8630 
 115   0.0000       0.143809         3.9132 
 116   0.0000       0.150301         4.0899 
 117   0.0000       0.151136         4.1126 
 118   0.0000       0.153066         4.1651 
 119   0.0000       0.155491         4.2311 
 120   0.0000       0.178932         4.8690 
 121   0.0000       0.180256         4.9050 
 122   0.0000       0.184321         5.0156 
 123   0.0000       0.184545         5.0217 
 124   0.0000       0.184678         5.0253 
 125   0.0000       0.185428         5.0458 
 126   0.0000       0.193232         5.2581 
 127   0.0000       0.194105         5.2819 
 128   0.0000       0.195888         5.3304 
 129   0.0000       0.228122         6.2075 
 130   0.0000       0.228457         6.2166 
 131   0.0000       0.229959         6.2575 
 132   0.0000       0.239753         6.5240 
 133   0.0000       0.246425         6.7056 
 134   0.0000       0.249855         6.7989 
 135   0.0000       0.249906         6.8003 
 136   0.0000       0.251891         6.8543 
 137   0.0000       0.252373         6.8674 
 138   0.0000       0.275193         7.4884 
 139   0.0000       0.277202         7.5431 
 140   0.0000       0.277434         7.5494 
 141   0.0000       0.283593         7.7170 
 142   0.0000       0.283948         7.7266 
 143   0.0000       0.292214         7.9515 
 144   0.0000       0.292617         7.9625 
 145   0.0000       0.292742         7.9659 
 146   0.0000       0.296700         8.0736 
 147   0.0000       0.297237         8.0882 
 148   0.0000       0.297616         8.0985 
 149   0.0000       0.299530         8.1506 
 150   0.0000       0.308406         8.3922 
 151   0.0000       0.308505         8.3948 
 152   0.0000       0.311277         8.4703 
 153   0.0000       0.311702         8.4818 
 154   0.0000       0.313937         8.5427 
 155   0.0000       0.327446         8.9103 
 156   0.0000       0.331907         9.0316 
 157   0.0000       0.332096         9.0368 
 158   0.0000       0.340913         9.2767 
 159   0.0000       0.343647         9.3511 
 160   0.0000       0.344075         9.3627 
 161   0.0000       0.355103         9.6628 
 162   0.0000       0.355410         9.6712 
 163   0.0000       0.356708         9.7065 
 164   0.0000       0.366170         9.9640 
 165   0.0000       0.372371        10.1327 
 166   0.0000       0.373424        10.1614 
 167   0.0000       0.373672        10.1681 
 168   0.0000       0.381785        10.3889 
 169   0.0000       0.382223        10.4008 
 170   0.0000       0.382573        10.4104 
 171   0.0000       0.388671        10.5763 
 172   0.0000       0.389649        10.6029 
 173   0.0000       0.389884        10.6093 
 174   0.0000       0.392816        10.6891 
 175   0.0000       0.393387        10.7046 
 176   0.0000       0.394491        10.7347 
 177   0.0000       0.397004        10.8030 
 178   0.0000       0.398362        10.8400 
 179   0.0000       0.410677        11.1751 
 180   0.0000       0.411638        11.2012 
 181   0.0000       0.413544        11.2531 
 182   0.0000       0.427322        11.6280 
 183   0.0000       0.427917        11.6442 
 184   0.0000       0.428576        11.6622 
 185   0.0000       0.428853        11.6697 
 186   0.0000       0.429242        11.6803 
 187   0.0000       0.431741        11.7483 
 188   0.0000       0.432283        11.7630 
 189   0.0000       0.434103        11.8125 
 190   0.0000       0.436494        11.8776 
 191   0.0000       0.438020        11.9191 
 192   0.0000       0.438321        11.9273 
 193   0.0000       0.451070        12.2742 
 194   0.0000       0.460445        12.5293 
 195   0.0000       0.461259        12.5515 
 196   0.0000       0.467388        12.7183 
 197   0.0000       0.470987        12.8162 
 198   0.0000       0.471303        12.8248 
 199   0.0000       0.472586        12.8597 
 200   0.0000       0.482370        13.1260 
 201   0.0000       0.483260        13.1502 
 202   0.0000       0.498485        13.5645 
 203   0.0000       0.507968        13.8225 
 204   0.0000       0.509334        13.8597 
 205   0.0000       0.510875        13.9016 
 206   0.0000       0.515925        14.0390 
 207   0.0000       0.516394        14.0518 
 208   0.0000       0.527151        14.3445 
 209   0.0000       0.535212        14.5639 
 210   0.0000       0.535907        14.5828 
 211   0.0000       0.536398        14.5961 
 212   0.0000       0.541610        14.7380 
 213   0.0000       0.547137        14.8884 
 214   0.0000       0.547547        14.8995 
 215   0.0000       0.551283        15.0012 
 216   0.0000       0.557870        15.1804 
 217   0.0000       0.558935        15.2094 
 218   0.0000       0.559430        15.2229 
 219   0.0000       0.575586        15.6625 
 220   0.0000       0.579601        15.7717 
 221   0.0000       0.580214        15.7884 
 222   0.0000       0.590256        16.0617 
 223   0.0000       0.591301        16.0901 
 224   0.0000       0.599923        16.3247 
 225   0.0000       0.603008        16.4087 
 226   0.0000       0.604244        16.4423 
 227   0.0000       0.607912        16.5421 
 228   0.0000       0.616384        16.7727 
 229   0.0000       0.617728        16.8092 
 230   0.0000       0.619438        16.8558 
 231   0.0000       0.620532        16.8855 
 232   0.0000       0.620996        16.8982 
 233   0.0000       0.622920        16.9505 
 234   0.0000       0.624102        16.9827 
 235   0.0000       0.625346        17.0165 
 236   0.0000       0.633979        17.2514 
 237   0.0000       0.644375        17.5343 
 238   0.0000       0.644992        17.5511 
 239   0.0000       0.646581        17.5944 
 240   0.0000       0.657859        17.9012 
 241   0.0000       0.658180        17.9100 
 242   0.0000       0.664304        18.0766 
 243   0.0000       0.679036        18.4775 
 244   0.0000       0.697667        18.9845 
 245   0.0000       0.698555        19.0086 
 246   0.0000       0.702601        19.1188 
 247   0.0000       0.703328        19.1385 
 248   0.0000       0.708166        19.2702 
 249   0.0000       0.713594        19.4179 
 250   0.0000       0.714161        19.4333 
 251   0.0000       0.714567        19.4444 
 252   0.0000       0.729737        19.8572 
 253   0.0000       0.736029        20.0284 
 254   0.0000       0.737425        20.0664 
 255   0.0000       0.737726        20.0745 
 256   0.0000       0.745046        20.2737 
 257   0.0000       0.746048        20.3010 
 258   0.0000       0.757421        20.6105 
 259   0.0000       0.758166        20.6307 
 260   0.0000       0.761059        20.7095 
 261   0.0000       0.761483        20.7210 
 262   0.0000       0.761969        20.7342 
 263   0.0000       0.779146        21.2017 
 264   0.0000       0.812087        22.0980 
 265   0.0000       0.827893        22.5281 
 266   0.0000       0.852468        23.1968 
 267   0.0000       0.853197        23.2167 
 268   0.0000       0.856930        23.3182 
 269   0.0000       0.857164        23.3246 
 270   0.0000       0.895979        24.3808 
 271   0.0000       0.898394        24.4465 
 272   0.0000       0.906393        24.6642 
 273   0.0000       0.907854        24.7040 
 274   0.0000       0.915837        24.9212 
 275   0.0000       0.923081        25.1183 
 276   0.0000       0.924605        25.1598 
 277   0.0000       0.942248        25.6399 
 278   0.0000       0.950866        25.8744 
 279   0.0000       0.951808        25.9000 
 280   0.0000       0.956235        26.0205 
 281   0.0000       0.957713        26.0607 
 282   0.0000       0.958856        26.0918 
 283   0.0000       0.961493        26.1636 
 284   0.0000       0.964447        26.2439 
 285   0.0000       0.965669        26.2772 
 286   0.0000       0.984259        26.7830 
 287   0.0000       1.007528        27.4162 
 288   0.0000       1.010620        27.5004 
 289   0.0000       1.011492        27.5241 
 290   0.0000       1.016028        27.6475 
 291   0.0000       1.017127        27.6774 
 292   0.0000       1.018077        27.7033 
 293   0.0000       1.030121        28.0310 
 294   0.0000       1.030250        28.0345 
 295   0.0000       1.039780        28.2939 
 296   0.0000       1.040289        28.3077 
 297   0.0000       1.041401        28.3380 
 298   0.0000       1.046317        28.4717 
 299   0.0000       1.046666        28.4812 
 300   0.0000       1.054520        28.6949 
 301   0.0000       1.060210        28.8498 
 302   0.0000       1.060518        28.8582 
 303   0.0000       1.061166        28.8758 
 304   0.0000       1.066969        29.0337 
 305   0.0000       1.067117        29.0377 
 306   0.0000       1.070325        29.1250 
 307   0.0000       1.088270        29.6133 
 308   0.0000       1.095074        29.7985 
 309   0.0000       1.096353        29.8333 
 310   0.0000       1.124975        30.6121 
 311   0.0000       1.130966        30.7752 
 312   0.0000       1.131615        30.7928 
 313   0.0000       1.132504        30.8170 
 314   0.0000       1.135546        30.8998 
 315   0.0000       1.135739        30.9050 
 316   0.0000       1.139981        31.0205 
 317   0.0000       1.140907        31.0457 
 318   0.0000       1.142237        31.0818 
 319   0.0000       1.146205        31.1898 
 320   0.0000       1.147138        31.2152 
 321   0.0000       1.148540        31.2534 
 322   0.0000       1.148785        31.2600 
 323   0.0000       1.153485        31.3879 
 324   0.0000       1.153922        31.3998 
 325   0.0000       1.154588        31.4179 
 326   0.0000       1.154764        31.4227 
 327   0.0000       1.160497        31.5787 
 328   0.0000       1.161430        31.6041 
 329   0.0000       1.170255        31.8442 
 330   0.0000       1.204068        32.7644 
 331   0.0000       1.204956        32.7885 
 332   0.0000       1.205768        32.8106 
 333   0.0000       1.206035        32.8179 
 334   0.0000       1.208844        32.8943 
 335   0.0000       1.209234        32.9049 
 336   0.0000       1.214775        33.0557 
 337   0.0000       1.214927        33.0599 
 338   0.0000       1.215357        33.0715 
 339   0.0000       1.216318        33.0977 
 340   0.0000       1.233037        33.5526 
 341   0.0000       1.234139        33.5826 
 342   0.0000       1.249574        34.0026 
 343   0.0000       1.270390        34.5691 
 344   0.0000       1.279474        34.8163 
 345   0.0000       1.279666        34.8215 
 346   0.0000       1.282258        34.8920 
 347   0.0000       1.290102        35.1055 
 348   0.0000       1.293557        35.1995 
 349   0.0000       1.295454        35.2511 
 350   0.0000       1.306897        35.5625 
 351   0.0000       1.308472        35.6053 
 352   0.0000       1.313612        35.7452 
 353   0.0000       1.327675        36.1279 
 354   0.0000       1.330346        36.2005 
 355   0.0000       1.331459        36.2308 
 356   0.0000       1.368531        37.2396 
 357   0.0000       1.368815        37.2474 
 358   0.0000       1.381936        37.6044 
 359   0.0000       1.384834        37.6832 
 360   0.0000       1.385284        37.6955 
 361   0.0000       1.402600        38.1667 
 362   0.0000       1.404492        38.2182 
 363   0.0000       1.404803        38.2266 
 364   0.0000       1.411710        38.4146 
 365   0.0000       1.428772        38.8789 
 366   0.0000       1.429439        38.8970 
 367   0.0000       1.438150        39.1340 
 368   0.0000       1.440324        39.1932 
 369   0.0000       1.441149        39.2157 
 370   0.0000       1.454865        39.5889 
 371   0.0000       1.455498        39.6061 
 372   0.0000       1.464011        39.8378 
 373   0.0000       1.485149        40.4130 
 374   0.0000       1.486505        40.4498 
 375   0.0000       1.487730        40.4832 
 376   0.0000       1.496807        40.7302 
 377   0.0000       1.497352        40.7450 
 378   0.0000       1.498105        40.7655 
 379   0.0000       1.505524        40.9674 
 380   0.0000       1.507212        41.0133 
 381   0.0000       1.507701        41.0266 
 382   0.0000       1.511537        41.1310 
 383   0.0000       1.518477        41.3199 
 384   0.0000       1.518907        41.3316 
 385   0.0000       1.530621        41.6503 
 386   0.0000       1.533057        41.7166 
 387   0.0000       1.533334        41.7241 
 388   0.0000       1.539506        41.8921 
 389   0.0000       1.539983        41.9051 
 390   0.0000       1.540545        41.9204 
 391   0.0000       1.553882        42.2833 
 392   0.0000       1.565271        42.5932 
 393   0.0000       1.565629        42.6029 
 394   0.0000       1.566223        42.6191 
 395   0.0000       1.571458        42.7615 
 396   0.0000       1.571885        42.7732 
 397   0.0000       1.583242        43.0822 
 398   0.0000       1.598576        43.4995 
 399   0.0000       1.598801        43.5056 
 400   0.0000       1.611955        43.8635 
 401   0.0000       1.615262        43.9535 
 402   0.0000       1.616483        43.9867 
 403   0.0000       1.621114        44.1127 
 404   0.0000       1.641851        44.6770 
 405   0.0000       1.645363        44.7726 
 406   0.0000       1.650869        44.9224 
 407   0.0000       1.651519        44.9401 
 408   0.0000       1.662697        45.2443 
 409   0.0000       1.662742        45.2455 
 410   0.0000       1.668206        45.3942 
 411   0.0000       1.668941        45.4142 
 412   0.0000       1.686033        45.8793 
 413   0.0000       1.686543        45.8932 
 414   0.0000       1.687976        45.9322 
 415   0.0000       1.688149        45.9369 
 416   0.0000       1.688342        45.9421 
 417   0.0000       1.707956        46.4758 
 418   0.0000       1.731430        47.1146 
 419   0.0000       1.731897        47.1273 
 420   0.0000       1.735849        47.2349 
 421   0.0000       1.744496        47.4701 
 422   0.0000       1.745077        47.4860 
 423   0.0000       1.749875        47.6165 
 424   0.0000       1.752456        47.6867 
 425   0.0000       1.753097        47.7042 
 426   0.0000       1.763247        47.9804 
 427   0.0000       1.763580        47.9894 
 428   0.0000       1.781218        48.4694 
 429   0.0000       1.800986        49.0073 
 430   0.0000       1.801579        49.0235 
 431   0.0000       1.806664        49.1618 
 432   0.0000       1.807157        49.1753 
 433   0.0000       1.812148        49.3110 
 434   0.0000       1.812551        49.3220 
 435   0.0000       1.819342        49.5068 
 436   0.0000       1.819507        49.5113 
 437   0.0000       1.825058        49.6624 
 438   0.0000       1.832165        49.8557 
 439   0.0000       1.832590        49.8673 
 440   0.0000       1.835641        49.9503 
 441   0.0000       1.840611        50.0856 
 442   0.0000       1.840977        50.0955 
 443   0.0000       1.851116        50.3714 
 444   0.0000       1.855591        50.4932 
 445   0.0000       1.856140        50.5081 
 446   0.0000       1.857470        50.5443 
 447   0.0000       1.858009        50.5590 
 448   0.0000       1.858595        50.5749 
 449   0.0000       1.869950        50.8839 
 450   0.0000       1.905705        51.8569 
 451   0.0000       1.905905        51.8623 
 452   0.0000       1.906892        51.8892 
 453   0.0000       1.926003        52.4092 
 454   0.0000       1.930501        52.5316 
 455   0.0000       1.933167        52.6042 
 456   0.0000       1.939541        52.7776 
 457   0.0000       1.939778        52.7840 
 458   0.0000       1.943500        52.8853 
 459   0.0000       1.944407        52.9100 
 460   0.0000       1.950624        53.0792 
 461   0.0000       1.950912        53.0870 
 462   0.0000       1.967099        53.5275 
 463   0.0000       1.969084        53.5815 
 464   0.0000       1.971180        53.6385 
 465   0.0000       1.971324        53.6424 
 466   0.0000       1.993266        54.2395 
 467   0.0000       1.997129        54.3446 
 468   0.0000       1.997653        54.3589 
 469   0.0000       2.006868        54.6097 
 470   0.0000       2.007331        54.6222 
 471   0.0000       2.014952        54.8296 
 472   0.0000       2.016976        54.8847 
 473   0.0000       2.017358        54.8951 
 474   0.0000       2.024138        55.0796 
 475   0.0000       2.032614        55.3102 
 476   0.0000       2.033400        55.3316 
 477   0.0000       2.039775        55.5051 
 478   0.0000       2.039929        55.5093 
 479   0.0000       2.043136        55.5966 
 480   0.0000       2.052319        55.8464 
 481   0.0000       2.053252        55.8718 
 482   0.0000       2.069140        56.3042 
 483   0.0000       2.081833        56.6495 
 484   0.0000       2.084595        56.7247 
 485   0.0000       2.086981        56.7896 
 486   0.0000       2.087161        56.7945 
 487   0.0000       2.105354        57.2896 
 488   0.0000       2.105685        57.2986 
 489   0.0000       2.110349        57.4255 
 490   0.0000       2.118480        57.6468 
 491   0.0000       2.118985        57.6605 
 492   0.0000       2.124760        57.8176 
 493   0.0000       2.126045        57.8526 
 494   0.0000       2.126573        57.8670 
 495   0.0000       2.151095        58.5343 
 496   0.0000       2.162839        58.8538 
 497   0.0000       2.179075        59.2956 
 498   0.0000       2.179522        59.3078 
 499   0.0000       2.193275        59.6820 
 500   0.0000       2.209573        60.1255 
 501   0.0000       2.213465        60.2314 
 502   0.0000       2.213520        60.2330 
 503   0.0000       2.224252        60.5250 
 504   0.0000       2.224820        60.5404 
 505   0.0000       2.225232        60.5516 
 506   0.0000       2.229296        60.6622 
 507   0.0000       2.229707        60.6734 
 508   0.0000       2.250346        61.2350 
 509   0.0000       2.250744        61.2459 
 510   0.0000       2.274316        61.8873 
 511   0.0000       2.275205        61.9115 
 512   0.0000       2.290873        62.3378 
 513   0.0000       2.296120        62.4806 
 514   0.0000       2.307653        62.7944 
 515   0.0000       2.307977        62.8032 
 516   0.0000       2.314037        62.9681 
 517   0.0000       2.326192        63.2989 
 518   0.0000       2.347817        63.8874 
 519   0.0000       2.348193        63.8976 
 520   0.0000       2.358907        64.1891 
 521   0.0000       2.359324        64.2005 
 522   0.0000       2.359856        64.2150 
 523   0.0000       2.395078        65.1734 
 524   0.0000       2.395673        65.1896 
 525   0.0000       2.417586        65.7859 
 526   0.0000       2.423826        65.9557 
 527   0.0000       2.423950        65.9590 
 528   0.0000       2.426345        66.0242 
 529   0.0000       2.435475        66.2726 
 530   0.0000       2.435906        66.2844 
 531   0.0000       2.446255        66.5660 
 532   0.0000       2.456593        66.8473 
 533   0.0000       2.456854        66.8544 
 534   0.0000       2.468095        67.1603 
 535   0.0000       2.468166        67.1622 
 536   0.0000       2.474013        67.3213 
 537   0.0000       2.479404        67.4680 
 538   0.0000       2.511165        68.3323 
 539   0.0000       2.511811        68.3498 
 540   0.0000       2.522267        68.6344 
 541   0.0000       2.550450        69.4013 
 542   0.0000       2.564609        69.7866 
 543   0.0000       2.565220        69.8032 
 544   0.0000       2.584097        70.3168 
 545   0.0000       2.588137        70.4268 
 546   0.0000       2.599819        70.7447 
 547   0.0000       2.600303        70.7578 
 548   0.0000       2.616699        71.2040 
 549   0.0000       2.617220        71.2182 
 550   0.0000       2.632788        71.6418 
 551   0.0000       2.633210        71.6533 
 552   0.0000       2.633289        71.6554 
 553   0.0000       2.671359        72.6914 
 554   0.0000       2.682543        72.9957 
 555   0.0000       2.694561        73.3227 
 556   0.0000       2.695192        73.3399 
 557   0.0000       2.739678        74.5504 
 558   0.0000       2.745188        74.7004 
 559   0.0000       2.747718        74.7692 
[...]
 521( 0) :     2.359324 a.u.    64.200 eV
 522( 0) :     2.359859 a.u.    64.215 eV
 523( 0) :     2.395077 a.u.    65.173 eV
 524( 0) :     2.395676 a.u.    65.190 eV
 525( 0) :     2.417588 a.u.    65.786 eV
 526( 0) :     2.423829 a.u.    65.956 eV
 527( 0) :     2.423952 a.u.    65.959 eV
 528( 0) :     2.426350 a.u.    66.024 eV
 529( 0) :     2.435476 a.u.    66.273 eV
 530( 0) :     2.435907 a.u.    66.284 eV
 531( 0) :     2.446256 a.u.    66.566 eV
 532( 0) :     2.456596 a.u.    66.847 eV
 533( 0) :     2.456857 a.u.    66.854 eV
 534( 0) :     2.468098 a.u.    67.160 eV
 535( 0) :     2.468169 a.u.    67.162 eV
 536( 0) :     2.474017 a.u.    67.321 eV
 537( 0) :     2.479401 a.u.    67.468 eV
 538( 0) :     2.511166 a.u.    68.332 eV
 539( 0) :     2.511813 a.u.    68.350 eV
 540( 0) :     2.522267 a.u.    68.634 eV
 541( 0) :     2.550453 a.u.    69.401 eV
 542( 0) :     2.564609 a.u.    69.787 eV
 543( 0) :     2.565218 a.u.    69.803 eV
 544( 0) :     2.584101 a.u.    70.317 eV
 545( 0) :     2.588129 a.u.    70.427 eV
 546( 0) :     2.599819 a.u.    70.745 eV
 547( 0) :     2.600301 a.u.    70.758 eV
 548( 0) :     2.616698 a.u.    71.204 eV
 549( 0) :     2.617217 a.u.    71.218 eV
 550( 0) :     2.632789 a.u.    71.642 eV
 551( 0) :     2.633210 a.u.    71.653 eV
 552( 0) :     2.633288 a.u.    71.655 eV
 553( 0) :     2.671360 a.u.    72.691 eV
 554( 0) :     2.682544 a.u.    72.996 eV
 555( 0) :     2.694561 a.u.    73.323 eV
 556( 0) :     2.695191 a.u.    73.340 eV
 557( 0) :     2.739682 a.u.    74.551 eV
 558( 0) :     2.745190 a.u.    74.700 eV
 559( 0) :     2.747721 a.u.    74.769 eV
 560( 0) :     2.747818 a.u.    74.772 eV
 561( 0) :     2.757670 a.u.    75.040 eV
 562( 0) :     2.757998 a.u.    75.049 eV
 563( 0) :     2.768105 a.u.    75.324 eV
 564( 0) :     2.768600 a.u.    75.337 eV
 565( 0) :     2.777217 a.u.    75.572 eV
 566( 0) :     2.785351 a.u.    75.793 eV
 567( 0) :     2.785753 a.u.    75.804 eV
 568( 0) :     2.791101 a.u.    75.950 eV
 569( 0) :     2.795652 a.u.    76.074 eV
 570( 0) :     2.796494 a.u.    76.096 eV
 571( 0) :     2.798727 a.u.    76.157 eV
 572( 0) :     2.818664 a.u.    76.700 eV
 573( 0) :     2.819585 a.u.    76.725 eV
 574( 0) :     2.856381 a.u.    77.726 eV
 575( 0) :     2.859502 a.u.    77.811 eV
 576( 0) :     2.860144 a.u.    77.828 eV
 577( 0) :     2.875467 a.u.    78.245 eV
 578( 0) :     2.875699 a.u.    78.252 eV
 579( 0) :     2.910321 a.u.    79.194 eV
 580( 0) :     2.911080 a.u.    79.215 eV
 581( 0) :     2.922548 a.u.    79.527 eV
 582( 0) :     2.923037 a.u.    79.540 eV
 583( 0) :     2.925733 a.u.    79.613 eV
 584( 0) :     2.933820 a.u.    79.833 eV
 585( 0) :     2.962788 a.u.    80.622 eV
 586( 0) :     2.963838 a.u.    80.650 eV
 587( 0) :     2.975090 a.u.    80.956 eV
 588( 0) :     2.985781 a.u.    81.247 eV
 589( 0) :     2.986961 a.u.    81.279 eV
 590( 0) :     3.062823 a.u.    83.344 eV
 591( 0) :     3.063539 a.u.    83.363 eV
 592( 0) :     3.067075 a.u.    83.459 eV
 593( 0) :     3.140599 a.u.    85.460 eV
 594( 0) :     3.800048 a.u.   103.405 eV
 595( 0) :     3.805370 a.u.   103.549 eV
 596( 0) :     3.836466 a.u.   104.396 eV
 597( 0) :     3.850145 a.u.   104.768 eV
 598( 0) :     3.886660 a.u.   105.761 eV
 599( 0) :     3.887652 a.u.   105.788 eV
 600( 0) :     5.167543 a.u.   140.616 eV
 601( 0) :     5.167636 a.u.   140.619 eV
 602( 0) :     5.176449 a.u.   140.858 eV
 603( 0) :     5.181795 a.u.   141.004 eV
 604( 0) :     5.182343 a.u.   141.019 eV
 605( 0) :     5.184858 a.u.   141.087 eV
 606( 0) :     5.280489 a.u.   143.689 eV
 607( 0) :     5.280632 a.u.   143.693 eV
 608( 0) :     5.285617 a.u.   143.829 eV
 609( 0) :     5.287430 a.u.   143.878 eV
 610( 0) :     5.287589 a.u.   143.883 eV
 611( 0) :     5.289470 a.u.   143.934 eV
 612( 0) :     5.298151 a.u.   144.170 eV
 613( 0) :     5.298335 a.u.   144.175 eV
 614( 0) :     5.300754 a.u.   144.241 eV
 615( 0) :     5.318697 a.u.   144.729 eV
 616( 0) :     5.319124 a.u.   144.741 eV
 617( 0) :     5.338238 a.u.   145.261 eV
 618( 0) :     5.371206 a.u.   146.158 eV
 619( 0) :     5.371800 a.u.   146.174 eV
 620( 0) :     5.383305 a.u.   146.487 eV
 621( 0) :     5.399076 a.u.   146.916 eV
 622( 0) :     5.399691 a.u.   146.933 eV
 623( 0) :     5.403016 a.u.   147.024 eV
 624( 0) :     5.417075 a.u.   147.406 eV
 625( 0) :     5.455567 a.u.   148.454 eV
 626( 0) :     5.456193 a.u.   148.471 eV
 627( 0) :     5.456460 a.u.   148.478 eV
 628( 0) :     5.486135 a.u.   149.285 eV
 629( 0) :     5.487602 a.u.   149.325 eV
 630( 0) :     5.487784 a.u.   149.330 eV
 631( 0) :     5.506837 a.u.   149.849 eV
 632( 0) :     5.520097 a.u.   150.209 eV
 633( 0) :     5.521339 a.u.   150.243 eV
 634( 0) :     5.545954 a.u.   150.913 eV
 635( 0) :     5.546267 a.u.   150.922 eV
 636( 0) :     5.557245 a.u.   151.220 eV
 637( 0) :     5.585890 a.u.   152.000 eV
 638( 0) :     5.587718 a.u.   152.050 eV
 639( 0) :     5.588763 a.u.   152.078 eV
 640( 0) :     5.647116 a.u.   153.666 eV
 641( 0) :     5.648838 a.u.   153.713 eV
 642( 0) :     5.669274 a.u.   154.269 eV
 643( 0) :     5.729617 a.u.   155.911 eV
 644( 0) :     5.730197 a.u.   155.927 eV
 645( 0) :     5.746020 a.u.   156.357 eV
 646( 0) :     5.753006 a.u.   156.547 eV
 647( 0) :     5.758507 a.u.   156.697 eV
 648( 0) :     5.759385 a.u.   156.721 eV
 649( 0) :     5.839160 a.u.   158.892 eV
 650( 0) :     5.839641 a.u.   158.905 eV
 651( 0) :     5.894798 a.u.   160.406 eV
 652( 0) :     5.990184 a.u.   163.001 eV
 653( 0) :     5.990449 a.u.   163.008 eV
 654( 0) :     6.074625 a.u.   165.299 eV
 655( 0) :     6.075579 a.u.   165.325 eV
 656( 0) :     6.085764 a.u.   165.602 eV
 657( 0) :     6.096826 a.u.   165.903 eV
 658( 0) :     6.106637 a.u.   166.170 eV
 659( 0) :     6.107416 a.u.   166.191 eV
 660( 0) :     6.114872 a.u.   166.394 eV
 661( 0) :     6.115723 a.u.   166.417 eV
 662( 0) :     6.122072 a.u.   166.590 eV
 663( 0) :     7.460300 a.u.   203.005 eV
 664( 0) :    29.649777 a.u.   806.811 eV
 665( 0) :    29.717530 a.u.   808.655 eV
 666( 0) :    29.717784 a.u.   808.662 eV
 667( 0) :    29.782711 a.u.   810.429 eV
 668( 0) :    29.793107 a.u.   810.712 eV
 669( 0) :    29.793343 a.u.   810.718 eV
 670( 0) :    29.832229 a.u.   811.776 eV
 671( 0) :    30.009903 a.u.   816.611 eV
 672( 0) :    30.010240 a.u.   816.620 eV
 673( 0) :    30.019020 a.u.   816.859 eV
 674( 0) :    30.035403 a.u.   817.305 eV
 675( 0) :    30.041014 a.u.   817.458 eV
 676( 0) :    30.041441 a.u.   817.469 eV
 677( 0) :    30.108442 a.u.   819.292 eV
 678( 0) :    30.108609 a.u.   819.297 eV
 679( 0) :    30.148904 a.u.   820.393 eV
 680( 0) :    30.240089 a.u.   822.875 eV
 681( 0) :    30.240291 a.u.   822.880 eV
 682( 0) :    30.295741 a.u.   824.389 eV
 683( 0) :    30.295895 a.u.   824.393 eV
 684( 0) :    30.319106 a.u.   825.025 eV
 685( 0) :    30.321291 a.u.   825.084 eV
 686( 0) :    30.329045 a.u.   825.295 eV
 687( 0) :    30.329517 a.u.   825.308 eV
 688( 0) :    30.333782 a.u.   825.424 eV
 689( 0) :    30.338606 a.u.   825.555 eV
 690( 0) :    30.338923 a.u.   825.564 eV
 691( 0) :    36.673837 a.u.   997.946 eV
 692( 0) :    36.681917 a.u.   998.166 eV
 693( 0) :    36.682081 a.u.   998.170 eV
 694( 0) :    36.763976 a.u.  1000.399 eV
 695( 0) :    36.766061 a.u.  1000.455 eV
 696( 0) :    36.774584 a.u.  1000.687 eV
 697( 0) :    36.863064 a.u.  1003.095 eV
 698( 0) :    36.878799 a.u.  1003.523 eV
 699( 0) :    36.878980 a.u.  1003.528 eV
 700( 0) :    36.893325 a.u.  1003.918 eV
 701( 0) :    36.893360 a.u.  1003.919 eV
 702( 0) :    36.893462 a.u.  1003.922 eV
 703( 0) :    36.894472 a.u.  1003.950 eV
 704( 0) :    36.905584 a.u.  1004.252 eV
 705( 0) :    36.905789 a.u.  1004.258 eV
 706( 0) :    36.909034 a.u.  1004.346 eV
 707( 0) :    36.909154 a.u.  1004.349 eV
 708( 0) :    36.939097 a.u.  1005.164 eV
 709( 0) :    36.962159 a.u.  1005.791 eV
 710( 0) :    36.962261 a.u.  1005.794 eV
 711( 0) :    36.978812 a.u.  1006.245 eV
 712( 0) :    36.987434 a.u.  1006.479 eV
 713( 0) :    37.012393 a.u.  1007.158 eV
 714( 0) :    37.012837 a.u.  1007.171 eV
 715( 0) :    37.015753 a.u.  1007.250 eV
 716( 0) :    37.026639 a.u.  1007.546 eV
 717( 0) :    37.032289 a.u.  1007.700 eV
 718( 0) :    37.105355 a.u.  1009.688 eV
 719( 0) :    37.105749 a.u.  1009.699 eV
 720( 0) :    37.111673 a.u.  1009.860 eV
 721( 0) :    37.245859 a.u.  1013.511 eV
 722( 0) :    37.253896 a.u.  1013.730 eV
 723( 0) :    37.269578 a.u.  1014.157 eV
 724( 0) :    37.358874 a.u.  1016.587 eV
 725( 0) :    37.371366 a.u.  1016.927 eV
 726( 0) :    37.371861 a.u.  1016.940 eV
 727( 0) :    41.163150 a.u.  1120.106 eV
-------
TIMINGS
-------

Total SCF time: 0 days 0 hours 1 min 8 sec 

Total time                  ....      68.384 sec
Sum of individual times     ....      64.851 sec  ( 94.8%)

Fock matrix formation       ....      42.073 sec  ( 61.5%)
  Split-RI-J                ....      24.980 sec  ( 59.4% of F)
  XC integration            ....      11.132 sec  ( 26.5% of F)
    Basis function eval.    ....       0.349 sec  (  3.1% of XC)
    Density eval.           ....       0.919 sec  (  8.3% of XC)
    XC-Functional eval.     ....       0.089 sec  (  0.8% of XC)
    XC-Potential eval.      ....       1.234 sec  ( 11.1% of XC)
Diagonalization             ....       8.302 sec  ( 12.1%)
Density matrix formation    ....       0.616 sec  (  0.9%)
Population analysis         ....       3.873 sec  (  5.7%)
Initial guess               ....       0.768 sec  (  1.1%)
Orbital Transformation      ....       0.000 sec  (  0.0%)
Orbital Orthonormalization  ....       0.000 sec  (  0.0%)
DIIS solution               ....       6.059 sec  (  8.9%)
Grid generation             ....       3.160 sec  (  4.6%)

-------------------------   --------------------
FINAL SINGLE POINT ENERGY     -1103.168215708393
-------------------------   --------------------

   --->>> SOC part of D-tensor requested, so NeedSOC=true

                            ***************************************
                            *     ORCA property calculations      *
                            ***************************************

                                    ---------------------
                                    Active property flags
                                    ---------------------
   (+) Dipole Moment
   (+) D-tensor
   (+) Spin-Orbit Integrals are needed


------------------------------------------------------------------------------
                       ORCA ELECTRIC PROPERTIES CALCULATION
------------------------------------------------------------------------------

Dipole Moment Calculation                       ... on
Quadrupole Moment Calculation                   ... off
Polarizability Calculation                      ... off
GBWName                                         ... zfs.gbw
Electron density file                           ... zfs.scfp
The origin for moment calculation is the CENTER OF MASS  = ( 0.000052,  0.000016 -3.167486)

-------------
DIPOLE MOMENT
-------------
                                X             Y             Z
Electronic contribution:      0.00432       0.00418       1.06762
Nuclear contribution   :     -0.00374      -0.00075      -0.32886
                        -----------------------------------------
Total Dipole Moment    :      0.00058       0.00343       0.73876
                        -----------------------------------------
Magnitude (a.u.)       :      0.73876
Magnitude (Debye)      :      1.87779



--------------------
Rotational spectrum 
--------------------
 
Rotational constants in cm-1:     0.009246     0.009141     0.009141 
Rotational constants in MHz :   277.183097   274.048600   274.045280 

 Dipole components along the rotational axes: 
x,y,z [a.u.] :     0.738755     0.002044     0.003149 
x,y,z [Debye]:     1.877765     0.005194     0.008004 

 


           ************************************************************
           *        Program running with 72 parallel MPI-processes    *
           *              working on a shared directory               *
           ************************************************************
------------------------------------------------------------------------------
                         ORCA SPIN-ORBIT COUPLING CALCULATION
------------------------------------------------------------------------------

GBW file                                    ... zfs.gbw
Input density                               ... zfs.scfp
Output integrals                            ... zfs
Operator type                               ... Mean-field/Effective potential
   One-Electron Terms                       ... 1
   Coulomb Contribution                     ... 2
   Exchange Contribution                    ... 3
   Correlation Contribution                 ... 0
   Maximum number of centers                ... 4
Setting up the integration grid             ... done
Evaluating density on the grid              ... (NumEl=  206.004529) done
Evaluating Coulomb term semi-analytically   ... done
One-Center Exchange (+SOO)                  ... done
Evaluating the spin-orbit operator          ... done
Total time for SOC: 64.500


           ************************************************************
           *        Program running with 72 parallel MPI-processes    *
           *              working on a shared directory               *
           ************************************************************
------------------------------------------------------------------------------
                                ORCA EPR/NMR CALCULATION
------------------------------------------------------------------------------

GBWName                      ... zfs.gbw
Electron density file        ... zfs.scfp
Spin density file            ... zfs.scfr
Spin-orbit integrals         ... zfs
Multiplicity                 ... 3
g-tensor                     ... 0
NMR chemical shifts          ... 0
D-tensor                     ... spin-spin and spin-orbit
D(SS)-algorithm              ... spin-density from UNOs
D(SOC)-algorithm             ... CP (=Coupled-perturbed)
Active orbitals for UNO spin density= 102 .. 103

Starting the spin-spin zero-field-splitting computation (UNO)...
                        ... done with spin-spin calculation

Starting the spin-orbit zero-field-splitting computation (CP)...
Transforming integrals                       ... Max(Pert)=   5.6107e-06
Warning: Perturbation too small - adjusting
Transforming integrals                       ... Max(Pert)=   6.1100e-05
Warning: Perturbation too small - adjusting
Transforming integrals                       ... Max(Pert)=   6.6538e-04
Warning: Perturbation too small - adjusting
Transforming integrals                       ... Max(Pert)=   7.2460e-03
done
    ... no HF exchange - skipping linear equations
ZFS-Tensor - using the prefactors
   -1/(4S**2) for same spin
    1/(2*S*(2*S-1)) for alpha->beta
    1/((S+1)*(2*S+1)) for beta->alpha
                        ... done with spin-orbit calculation

---------------------------
ZERO-FIELD-SPLITTING TENSOR
---------------------------

raw-matrix : 
   0.019963    -0.000308     0.000016  
  -0.000308     0.019944    -0.000018  
   0.000016    -0.000018     0.087106  

Tensor is right-handed
diagonalized D matrix : 
   0.019645     0.020261     0.087106  

   0.695933    -0.718107     0.000242  
   0.718107     0.695933    -0.000263  
   0.000021     0.000357     1.000000  


Direction X=1 Y=0 Z=2
D   =     0.067153  cm**-1
E/D =     0.004585

SPIN-SPIN-PART
                   0          1          2    
      0      -0.021873  -0.000303   0.000003
      1      -0.000303  -0.021889  -0.000001
      2       0.000003  -0.000001   0.043761
Exchange and Coulomb parts of SS (raw)
Coulomb
                   0          1          2    
      0      -0.014088   0.004205   0.000049
      1       0.004205  -0.018035  -0.000022
      2       0.000049  -0.000022   0.032124
Exchange
                   0          1          2    
      0      -0.007784  -0.004508  -0.000046
      1      -0.004508  -0.003853   0.000021
      2      -0.000046   0.000021   0.011638
One-, two-, three- and four-center SS contributions (raw)
One-Center            (AA|AA):
                   0          1          2    
      0      -0.001490   0.000231   0.000034
      1       0.000231  -0.001564  -0.000029
      2       0.000034  -0.000029   0.003054
Two-Center-Coulomb    (AA|BB):
                   0          1          2    
      0      -0.364016   0.050035  -0.000060
      1       0.050035  -0.339144  -0.000150
      2      -0.000060  -0.000150   0.703160
Two-Center-Exchange   (AB|BA):
                   0          1          2    
      0      -0.014621  -0.000923  -0.000204
      1      -0.000923  -0.015036   0.000467
      2      -0.000204   0.000467   0.029657
Two-Center-hybrid     (AA|AB):
                   0          1          2    
      0       0.001592  -0.000937  -0.000327
      1      -0.000937   0.001387   0.000173
      2      -0.000327   0.000173  -0.002979
Three-Center-Coulomb  (AA|BC):
                   0          1          2    
      0       0.626263  -0.087633  -0.003410
      1      -0.087633   0.580611   0.004659
      2      -0.003410   0.004659  -1.206874
Three-Center-Exchange (AB|AC):
                   0          1          2    
      0      -0.004350  -0.000682   0.001604
      1      -0.000682  -0.003312  -0.001999
      2       0.001604  -0.001999   0.007662
Four-Center           (AB|CD):
                   0          1          2    
      0      -0.265251   0.039606   0.002366
      1       0.039606  -0.244832  -0.003123
      2       0.002366  -0.003123   0.510083
ALPHA-PART
                   0          1          2    
      0      -0.113507  -0.000009  -0.000006
      1      -0.000009  -0.113505   0.000007
      2      -0.000006   0.000007  -0.108820
BETA-PART
                   0          1          2    
      0      -0.111413  -0.000019  -0.000001
      1      -0.000019  -0.111413   0.000005
      2      -0.000001   0.000005  -0.104853
ALPHA->BETA-PART
                   0          1          2    
      0       0.230145   0.000017   0.000021
      1       0.000017   0.230138  -0.000029
      2       0.000021  -0.000029   0.222807
BETA->ALPHA-PART
                   0          1          2    
      0       0.036612   0.000007  -0.000001
      1       0.000007   0.036612  -0.000000
      2      -0.000001  -0.000000   0.034210

Individual contributions (in cm**-1)
                                   D         E
SPIN-SPIN                  :   0.06564    0.00030
  Exchange vs Coulomb
  Coulomb                  :   0.04819   -0.00414
  Exchange                 :   0.01746    0.00444
  One through four center contributions:
  1-center                 :   0.00458   -0.00023
  2-center-Coulomb         :   1.05474   -0.05040
  2-center-Exchange        :   0.04448    0.00093
  2-center-Hybrid          :  -0.00447    0.00094
  3-center-Coulomb         :  -1.81032    0.08831
  3-center-Exchange        :   0.01149    0.00066
  4-center                 :   0.76513   -0.03991
SPIN-ORBIT                 :   0.00151    0.00000
SOMO->VMO  (alpha->alpha)  :   0.00469    0.00001
DOMO->SOMO (beta ->beta )  :   0.00656    0.00002
SOMO->SOMO (alpha->beta )  :  -0.00733   -0.00002
DOMO->VMO  (beta ->alpha)  :  -0.00240   -0.00001


Timings for individual modules:

Sum of individual times         ...      259.534 sec (=   4.326 min)
GTO integral calculation        ...       12.436 sec (=   0.207 min)   4.8 %
Spin-Orbit-Coupling Matrices    ...       64.491 sec (=   1.075 min)  24.8 %
SCF iterations                  ...       74.092 sec (=   1.235 min)  28.5 %
EPR/NMR calculation             ...      108.515 sec (=   1.809 min)  41.8 %
                             ****ORCA TERMINATED NORMALLY****
TOTAL RUN TIME: 0 days 0 hours 4 minutes 33 seconds 965 msec
