
                                 *****************
                                 * O   R   C   A *
                                 *****************

           --- An Ab Initio, DFT and Semiempirical electronic structure package ---

                  #######################################################
                  #                        -***-                        #
                  #          Department of theory and spectroscopy      #
                  #               Directorship: Frank Neese             #
                  #        Max Planck Institute fuer Kohlenforschung    #
                  #                Kaiser Wilhelm Platz 1               #
                  #                 D-45470 Muelheim/Ruhr               #
                  #                      Germany                        #
                  #                                                     #
                  #                  All rights reserved                #
                  #                        -***-                        #
                  #######################################################


                         Program Version 4.2.1 -  RELEASE  -


 With contributions from (in alphabetic order):
   Daniel Aravena         : Magnetic Suceptibility
   Michael Atanasov       : Ab Initio Ligand Field Theory (pilot matlab implementation)
   Alexander A. Auer      : GIAO ZORA, VPT2
   Ute Becker             : Parallelization
   Giovanni Bistoni       : ED, misc. LED, open-shell LED, HFLD
   Martin Brehm           : Molecular dynamics
   Dmytro Bykov           : SCF Hessian
   Vijay G. Chilkuri      : MRCI spin determinant printing, contributions to CSF-ICE
   Dipayan Datta          : RHF DLPNO-CCSD density
   Achintya Kumar Dutta   : EOM-CC, STEOM-CC
   Dmitry Ganyushin       : Spin-Orbit,Spin-Spin,Magnetic field MRCI
   Miquel Garcia          : C-PCM Hessian, Gaussian charge scheme
   Yang Guo               : DLPNO-NEVPT2, CIM, IAO-localization
   Andreas Hansen         : Spin unrestricted coupled pair/coupled cluster methods
   Benjamin Helmich-Paris : CASSCF linear response (MC-RPA)
   Lee Huntington         : MR-EOM, pCC
   Robert Izsak           : Overlap fitted RIJCOSX, COSX-SCS-MP3, EOM
   Christian Kollmar      : KDIIS, OOCD, Brueckner-CCSD(T), CCSD density
   Simone Kossmann        : Meta GGA functionals, TD-DFT gradient, OOMP2, MP2 Hessian
   Martin Krupicka        : AUTO-CI
   Lucas Lang             : DCDCAS
   Dagmar Lenk            : GEPOL surface, SMD
   Dimitrios Liakos       : Extrapolation schemes; Compound Job, initial MDCI parallelization
   Dimitrios Manganas     : Further ROCIS development; embedding schemes
   Dimitrios Pantazis     : SARC Basis sets
   Taras Petrenko         : DFT Hessian,TD-DFT gradient, ASA, ECA, R-Raman, ABS, FL, XAS/XES, NRVS
   Peter Pinski           : DLPNO-MP2, DLPNO-MP2 Gradient
   Christoph Reimann      : Effective Core Potentials
   Marius Retegan         : Local ZFS, SOC
   Christoph Riplinger    : Optimizer, TS searches, QM/MM, DLPNO-CCSD(T), (RO)-DLPNO pert. Triples
   Tobias Risthaus        : Range-separated hybrids, TD-DFT gradient, RPA, STAB
   Michael Roemelt        : Original ROCIS implementation
   Masaaki Saitow         : Open-shell DLPNO-CCSD energy and density
   Barbara Sandhoefer     : DKH picture change effects
   Avijit Sen             : IP-ROCIS
   Kantharuban Sivalingam : CASSCF convergence, NEVPT2, FIC-MRCI
   Bernardo de Souza      : ESD, SOC TD-DFT
   Georgi Stoychev        : AutoAux, RI-MP2 NMR
   Willem Van den Heuvel  : Paramagnetic NMR
   Boris Wezisla          : Elementary symmetry handling
   Frank Wennmohs         : Technical directorship


 We gratefully acknowledge several colleagues who have allowed us to
 interface, adapt or use parts of their codes:
   Stefan Grimme, W. Hujo, H. Kruse,             : VdW corrections, initial TS optimization,
                  C. Bannwarth                     DFT functionals, gCP, sTDA/sTD-DF
   Ed Valeev, F. Pavosevic, A. Kumar             : LibInt (2-el integral package), F12 methods
   Garnet Chan, S. Sharma, J. Yang, R. Olivares  : DMRG
   Ulf Ekstrom                                   : XCFun DFT Library
   Mihaly Kallay                                 : mrcc  (arbitrary order and MRCC methods)
   Andreas Klamt, Michael Diedenhofen            : otool_cosmo (COSMO solvation model)
   Jiri Pittner, Ondrej Demel                    : Mk-CCSD
   Frank Weinhold                                : gennbo (NPA and NBO analysis)
   Christopher J. Cramer and Donald G. Truhlar   : smd solvation model
   Lars Goerigk                                  : TD-DFT with DH, B97 family of functionals
   V. Asgeirsson, H. Jonsson                     : NEB implementation
   FAccTs GmbH                                   : IRC, NEB, NEB-TS, Multilevel, MM, QM/MM, CI optimization
   S Lehtola, MJT Oliveira, MAL Marques          : LibXC Library


 Your calculation uses the libint2 library for the computation of 2-el integrals
 For citations please refer to: http://libint.valeyev.net

 Your ORCA version has been built with support for libXC version: 4.2.3
 For citations please refer to: https://tddft.org/programs/libxc/

 This ORCA versions uses:
   CBLAS   interface :  Fast vector & matrix operations
   LAPACKE interface :  Fast linear algebra routines
   SCALAPACK package :  Parallel linear algebra routines




***************************************
The coordinates will be read from file: nv.xyz
***************************************


----- Orbital basis set information -----
Your calculation utilizes the basis: EPR-II
   V. Barone, in Recent Advances in Density Functional Methods, Part 1 (ed. D. P. Chong), World Scientific, Singapore, 1995, p. 287.

----- AuxJ basis set information -----
Your calculation utilizes the AutoAux generation procedure.
  G. L. Stoychev, A. A. Auer, F. Neese, J. Chem. Theory Comput. 13, 554 (2017)

----- AuxC basis set information -----
Your calculation utilizes the AutoAux generation procedure.
  G. L. Stoychev, A. A. Auer, F. Neese, J. Chem. Theory Comput. 13, 554 (2017)

----- AuxJK basis set information -----
Your calculation utilizes the AutoAux generation procedure.
  G. L. Stoychev, A. A. Auer, F. Neese, J. Chem. Theory Comput. 13, 554 (2017)

================================================================================
                                        WARNINGS
                       Please study these warnings very carefully!
================================================================================


WARNING: your system is open-shell and RHF/RKS was chosen
  ===> : WILL SWITCH to UHF/UKS


INFO   : the flag for use of LIBINT has been found!

================================================================================
                                       INPUT FILE
================================================================================
NAME = zfs.in
|  1> # Use EPR-II is a special basis set for epr, autoaux creates a large auxiliary basis
|  2> !PBE EPR-II AUTOAUX RIJCOSX
|  3> 
|  4> # use original (unoptimized) cluster xyz
|  5> *xyzfile -1 3 nv.xyz
|  6> 
|  7> # Parallelization
|  8> %PAL NPROCS 72 END
|  9> 
| 10> # ZFS calculation
| 11> %EPRNMR DTENSOR SSANDSO
| 12>     DSS     UNO
| 13>     DSOC    CP
| 14> END
| 15> 
| 16>                          ****END OF INPUT****
================================================================================

                       ****************************
                       * Single Point Calculation *
                       ****************************

---------------------------------
CARTESIAN COORDINATES (ANGSTROEM)
---------------------------------
  C      1.307423   -0.813043   -2.249811
  C     -0.047565   -1.454855   -4.258023
  C      2.560665    1.368583   -2.199697
  C     -2.465513    1.533227   -2.199804
  C     -0.095012   -2.901890   -2.199700
  C      1.314788    2.127981   -0.144983
  C     -1.327102   -2.120322   -0.144986
  C     -1.172697    2.209464   -0.145035
  C      1.185499   -2.202629   -0.144933
  C      2.499808   -0.089147   -0.144931
  C     -2.500277    0.074643   -0.145037
  C     -0.046561   -1.421112    0.395617
  C     -1.207456    0.750879    0.395566
  C      1.253992    0.670248    0.395618
  C      0.047854    1.458365   -3.737621
  C      1.239214   -0.770624   -3.737569
  C     -1.286829   -0.687877   -3.737623
  C      1.314983    2.126886   -1.693673
  C     -1.326033   -2.120011   -1.693676
  C     -1.172896    2.208383   -1.693726
  C      1.184519   -2.202251   -1.693623
  C      2.499037   -0.088433   -1.693621
  C     -2.499394    0.075303   -1.693727
  C      0.050453    1.538700   -2.249865
  C     -1.357732   -0.725739   -2.249867
  C      1.283817    0.686079   -4.258021
  C     -1.235979    0.768621   -4.258075
  N      0.000000    0.000000    0.000000
  H     -0.080676   -2.465401   -3.907906
  H     -0.047308   -1.447703   -5.328003
  H      2.576170    1.376844   -3.269544
  H      3.447222    1.842442   -1.833101
  H     -3.317115    2.062811   -1.826663
  H     -2.486353    1.546188   -3.269519
  H     -0.095563   -2.919448   -3.269548
  H     -0.127931   -3.906600   -1.833106
  H      0.462943    2.671089    0.207581
  H      2.214347    2.591206    0.203028
  H     -1.353645   -3.130131    0.207839
  H     -2.187684   -1.588002    0.202756
  H     -2.033961    2.737355    0.207753
  H     -0.281417    2.688589    0.202744
  H      2.081752   -1.736464    0.207668
  H      1.136869   -3.213282    0.203076
  H      3.387593    0.392784    0.207895
  H      2.469088   -1.100580    0.202848
  H     -2.544708   -0.934617    0.207562
  H     -3.351230    0.622083    0.202936
  H     -0.046993   -1.433585    1.465539
  H     -1.218088    0.757489    1.465488
  H      1.264987    0.676149    1.465541
  H      0.080763    2.462741   -4.105093
  H      2.092591   -1.301312   -4.105005
  H     -2.173091   -1.161579   -4.105096
  H      1.355525    3.138581   -2.039696
  H     -2.215484   -2.603795   -2.039701
  H     -1.147126    3.220562   -2.039749
  H      2.040417   -2.743208   -2.039611
  H      3.362740   -0.616841   -2.039609
  H     -3.395812   -0.395448   -2.039752
  H      1.277719    0.682795   -5.328007
  H      2.175465    1.162659   -3.907684
  H     -2.094597    1.302568   -3.907994
  H     -1.229869    0.764823   -5.328055

----------------------------
CARTESIAN COORDINATES (A.U.)
----------------------------
  NO LB      ZA    FRAG     MASS         X           Y           Z
   0 C     6.0000    0    12.011    2.470672   -1.536428   -4.251526
   1 C     6.0000    0    12.011   -0.089885   -2.749278   -8.046497
   2 C     6.0000    0    12.011    4.838955    2.586246   -4.156825
   3 C     6.0000    0    12.011   -4.659144    2.897380   -4.157026
   4 C     6.0000    0    12.011   -0.179546   -5.483777   -4.156831
   5 C     6.0000    0    12.011    2.484588    4.021301   -0.273977
   6 C     6.0000    0    12.011   -2.507860   -4.006828   -0.273984
   7 C     6.0000    0    12.011   -2.216075    4.175282   -0.274077
   8 C     6.0000    0    12.011    2.240268   -4.162365   -0.273883
   9 C     6.0000    0    12.011    4.723953   -0.168464   -0.273880
  10 C     6.0000    0    12.011   -4.724839    0.141054   -0.274081
  11 C     6.0000    0    12.011   -0.087987   -2.685513    0.747607
  12 C     6.0000    0    12.011   -2.281762    1.418955    0.747512
  13 C     6.0000    0    12.011    2.369701    1.266585    0.747611
  14 C     6.0000    0    12.011    0.090431    2.755911   -7.063080
  15 C     6.0000    0    12.011    2.341775   -1.456268   -7.062982
  16 C     6.0000    0    12.011   -2.431755   -1.299900   -7.063084
  17 C     6.0000    0    12.011    2.484959    4.019233   -3.200578
  18 C     6.0000    0    12.011   -2.505839   -4.006241   -3.200585
  19 C     6.0000    0    12.011   -2.216453    4.173239   -3.200678
  20 C     6.0000    0    12.011    2.238416   -4.161650   -3.200484
  21 C     6.0000    0    12.011    4.722496   -0.167114   -3.200481
  22 C     6.0000    0    12.011   -4.723170    0.142301   -3.200681
  23 C     6.0000    0    12.011    0.095342    2.907721   -4.251629
  24 C     6.0000    0    12.011   -2.565742   -1.371448   -4.251633
  25 C     6.0000    0    12.011    2.426062    1.296502   -8.046494
  26 C     6.0000    0    12.011   -2.335662    1.452484   -8.046595
  27 N     7.0000    0    14.007    0.000000    0.000000    0.000000
  28 H     1.0000    0     1.008   -0.152456   -4.658932   -7.384872
  29 H     1.0000    0     1.008   -0.089399   -2.735763  -10.068467
  30 H     1.0000    0     1.008    4.868255    2.601859   -6.178543
  31 H     1.0000    0     1.008    6.514306    3.481711   -3.464060
  32 H     1.0000    0     1.008   -6.268438    3.898148   -3.451893
  33 H     1.0000    0     1.008   -4.698527    2.921873   -6.178495
  34 H     1.0000    0     1.008   -0.180589   -5.516957   -6.178550
  35 H     1.0000    0     1.008   -0.241755   -7.382404   -3.464069
  36 H     1.0000    0     1.008    0.874835    5.047626    0.392271
  37 H     1.0000    0     1.008    4.184510    4.896670    0.383668
  38 H     1.0000    0     1.008   -2.558018   -5.915090    0.392758
  39 H     1.0000    0     1.008   -4.134124   -3.000889    0.383154
  40 H     1.0000    0     1.008   -3.843629    5.172851    0.392597
  41 H     1.0000    0     1.008   -0.531801    5.080697    0.383131
  42 H     1.0000    0     1.008    3.933941   -3.281441    0.392436
  43 H     1.0000    0     1.008    2.148372   -6.072224    0.383759
  44 H     1.0000    0     1.008    6.401622    0.742254    0.392864
  45 H     1.0000    0     1.008    4.665900   -2.079795    0.383326
  46 H     1.0000    0     1.008   -4.808801   -1.766170    0.392235
  47 H     1.0000    0     1.008   -6.332906    1.175567    0.383494
  48 H     1.0000    0     1.008   -0.088803   -2.709083    2.769468
  49 H     1.0000    0     1.008   -2.301852    1.431446    2.769372
  50 H     1.0000    0     1.008    2.390478    1.277737    2.769471
  51 H     1.0000    0     1.008    0.152620    4.653906   -7.757501
  52 H     1.0000    0     1.008    3.954423   -2.459122   -7.757336
  53 H     1.0000    0     1.008   -4.106547   -2.195066   -7.757507
  54 H     1.0000    0     1.008    2.561571    5.931059   -3.854467
  55 H     1.0000    0     1.008   -4.186658   -4.920460   -3.854476
  56 H     1.0000    0     1.008   -2.167753    6.085980   -3.854568
  57 H     1.0000    0     1.008    3.855829   -5.183911   -3.854305
  58 H     1.0000    0     1.008    6.354657   -1.165660   -3.854302
  59 H     1.0000    0     1.008   -6.417154   -0.747288   -3.854573
  60 H     1.0000    0     1.008    2.414538    1.290295  -10.068475
  61 H     1.0000    0     1.008    4.111034    2.197108   -7.384452
  62 H     1.0000    0     1.008   -3.958215    2.461498   -7.385038
  63 H     1.0000    0     1.008   -2.324115    1.445305  -10.068564

--------------------------------
INTERNAL COORDINATES (ANGSTROEM)
--------------------------------
 C      0   0   0     0.000000000000     0.00000000     0.00000000
 C      1   0   0     2.506159188433     0.00000000     0.00000000
 C      1   2   0     2.516468737799   120.47980032     0.00000000
 C      2   1   3     4.360203420597    75.28951499   283.77948098
 C      1   2   3     2.516468891136    60.13666440   174.71907253
 C      3   1   2     2.520068779758    91.79194712   121.28833100
 C      5   1   2     2.520068762355    91.79201995   236.05607763
 C      6   3   1     2.488818368175   120.26272267   304.19020215
 C      7   5   1     2.513948947452    60.08027954   306.41229827
 C      9   7   5     2.488817352714   120.00002880   109.82545097
 C      7   5   1     2.488816777177   120.26270157    55.80983232
 C      7   5   1     1.555934702227    91.16206225   325.68709315
 C      8   6   3     1.555934052518    89.52038814    91.06561728
 C      6   3   1     1.555934062221    91.16212211    34.31292441
 C      3   1   2     2.947455098853    65.88562639    32.41919376
 C      1   2   3     1.489925410412    35.15414081   323.08151357
 C      2   1   3     1.547529030127    92.09616882   273.73521376
 C      3   1   2     1.543634497819    91.74891423    85.78589528
 C      5   1   2     1.543634474745    91.74900368   271.55851521
 C      4   2   1     1.543634426594    89.43441785    30.89183770
 C      1   2   3     1.501448809817    90.89532353   191.81515947
 C      1   2   3     1.501449344902   148.15946931   329.09681939
 C      4   2   1     1.543633746673    61.29331666   278.87882691
 C     15   3   1     1.489925437877    58.60967736    79.25168915
 C     17   2   1     1.489925476678   111.18022711   326.95804089
 C     16   1   2     1.547528290250   111.18021292   121.75553481
 C     17   2   1     1.547528292534   109.09004221    89.92306832
 N     12   7   5     1.475886138871   111.44049751    93.52608409
 H      2   1   3     1.069990716830    89.79352597   164.26253072
 H      2   1   3     1.070004294786   143.07770566    40.86734307
 H      3   1   2     1.069991509776    89.65616667   336.17389649
 H      3   1   2     1.070008907790   143.45442869   213.40182389
 H      4   2   1     1.070008630376   160.93593852   213.27452139
 H      4   2   1     1.069996784564    63.07524131   143.53512802
 H     29   2   1     0.783506148209   144.53757492    32.14134813
 H      5   1   2     1.070008457802   143.45441154   143.94258781
 H      6   3   1     1.070002931541   144.60622174   267.56155987
 H      6   3   1     1.069998801168    88.85452191   143.28877487
 H      7   5   1     1.070001689868    89.32902230   216.43024006
 H      7   5   1     1.069995564521   144.34073001    91.60649889
 H      8   6   3     1.070002206961   145.14813582   215.49452425
 H     37   6   3     0.744581472977   143.67474243    62.06104371
 H      9   7   5     1.070002898426   145.37732651   145.27378857
 H      9   7   5     1.069998336741    89.16959389   270.84373776
 H     10   9   7     1.070002153570   145.14812967   144.76011290
 H     43   9   7     0.744581166534   143.67473631   300.54055371
 H     40   7   5     0.744581002713   145.51897269   298.58473535
 H     11   7   5     1.069998827941   145.69948101   144.51454583
 H     12   7   5     1.069995472812   109.98972408   211.05044890
 H     13   8   6     1.069995477087   109.98975804    90.79100386
 H     14   6   3     1.069995466066   109.98975809   148.94952878
 H     15   3   1     1.069995020144   100.46116415   182.87308408
 H     16   1   2     1.069995530283   106.99377720   240.87773463
 H     17   2   1     1.069995470829   109.17096225   209.14698707
 H     18   3   1     1.070001082755   109.14081203   209.46733766
 H     19   5   1     1.070001544116   109.14088144   150.53266271
 H     20   4   2     1.070001077263   109.14085334   120.92648837
 H     21   1   2     1.070001584280   106.41034515    92.35939568
 H     22   1   2     1.070001596083   106.41041644   291.94871448
 H     23   4   2     1.070001548851   109.14085324   258.30749263
 H     26  16   1     1.070008557443   109.46621820   177.47400824
 H     31   3   1     0.783365299898   143.60830339    31.99437329
 H     34   4   2     0.787701494535   142.83583387   341.07939125
 H     27  17   2     1.070004297035   109.46009775    59.54970981

---------------------------
INTERNAL COORDINATES (A.U.)
---------------------------
 C      0   0   0     0.000000000000     0.00000000     0.00000000
 C      1   0   0     4.735954514149     0.00000000     0.00000000
 C      1   2   0     4.755436739014   120.47980032     0.00000000
 C      2   1   3     8.239590353116    75.28951499   283.77948098
 C      1   2   3     4.755437028779    60.13666440   174.71907253
 C      3   1   2     4.762239832388    91.79194712   121.28833100
 C      5   1   2     4.762239799500    91.79201995   236.05607763
 C      6   3   1     4.703185112923   120.26272267   304.19020215
 C      7   5   1     4.750675025344    60.08027954   306.41229827
 C      9   7   5     4.703183193979   120.00002880   109.82545097
 C      7   5   1     4.703182106372   120.26270157    55.80983232
 C      7   5   1     2.940290469472    91.16206225   325.68709315
 C      8   6   3     2.940289241701    89.52038814    91.06561728
 C      6   3   1     2.940289260037    91.16212211    34.31292441
 C      3   1   2     5.569882928863    65.88562639    32.41919376
 C      1   2   3     2.815550985649    35.15414081   323.08151357
 C      2   1   3     2.924406051232    92.09616882   273.73521376
 C      3   1   2     2.917046451751    91.74891423    85.78589528
 C      5   1   2     2.917046408147    91.74900368   271.55851521
 C      4   2   1     2.917046317156    89.43441785    30.89183770
 C      1   2   3     2.837327054657    90.89532353   191.81515947
 C      1   2   3     2.837328065821   148.15946931   329.09681939
 C      4   2   1     2.917045032292    61.29331666   278.87882691
 C     15   3   1     2.815551037550    58.60967736    79.25168915
 C     17   2   1     2.815551110874   111.18022711   326.95804089
 C     16   1   2     2.924404653067   111.18021292   121.75553481
 C     17   2   1     2.924404657385   109.09004221    89.92306832
 N     12   7   5     2.789020607316   111.44049751    93.52608409
 H      2   1   3     2.021989420646    89.79352597   164.26253072
 H      2   1   3     2.022015079266   143.07770566    40.86734307
 H      3   1   2     2.021990919098    89.65616667   336.17389649
 H      3   1   2     2.022023796580   143.45442869   213.40182389
 H      4   2   1     2.022023272343   160.93593852   213.27452139
 H      4   2   1     2.022000887003    63.07524131   143.53512802
 H     29   2   1     1.480612044359   144.53757492    32.14134813
 H      5   1   2     2.022022946225   143.45441154   143.94258781
 H      6   3   1     2.022012503105   144.60622174   267.56155987
 H      6   3   1     2.022004697832    88.85452191   143.28877487
 H      7   5   1     2.022010156684    89.32902230   216.43024006
 H      7   5   1     2.021998581455   144.34073001    91.60649889
 H      8   6   3     2.022011133847   145.14813582   215.49452425
 H     37   6   3     1.407055068317   143.67474243    62.06104371
 H      9   7   5     2.022012440528   145.37732651   145.27378857
 H      9   7   5     2.022003820191    89.16959389   270.84373776
 H     10   9   7     2.022011032953   145.14812967   144.76011290
 H     43   9   7     1.407054489225   143.67473631   300.54055371
 H     40   7   5     1.407054179649   145.51897269   298.58473535
 H     11   7   5     2.022004748426   145.69948101   144.51454583
 H     12   7   5     2.021998408150   109.98972408   211.05044890
 H     13   8   6     2.021998416228   109.98975804    90.79100386
 H     14   6   3     2.021998395401   109.98975809   148.94952878
 H     15   3   1     2.021997552732   100.46116415   182.87308408
 H     16   1   2     2.021998516755   106.99377720   240.87773463
 H     17   2   1     2.021998404402   109.17096225   209.14698707
 H     18   3   1     2.022009009407   109.14081203   209.46733766
 H     19   5   1     2.022009881253   109.14088144   150.53266271
 H     20   4   2     2.022008999028   109.14085334   120.92648837
 H     21   1   2     2.022009957151   106.41034515    92.35939568
 H     22   1   2     2.022009979455   106.41041644   291.94871448
 H     23   4   2     2.022009890199   109.14085324   258.30749263
 H     26  16   1     2.022023134519   109.46621820   177.47400824
 H     31   3   1     1.480345879624   143.60830339    31.99437329
 H     34   4   2     1.488540099952   142.83583387   341.07939125
 H     27  17   2     2.022015083516   109.46009775    59.54970981

---------------------
BASIS SET INFORMATION
---------------------
There are 3 groups of distinct atoms

 Group   1 Type C   : 10s5p1d contracted to 6s2p1d pattern {511111/41/1}
 Group   2 Type N   : 10s5p1d contracted to 6s2p1d pattern {511111/41/1}
 Group   3 Type H   : 6s1p contracted to 4s1p pattern {3111/1}

Atom   0C    basis set group =>   1
Atom   1C    basis set group =>   1
Atom   2C    basis set group =>   1
Atom   3C    basis set group =>   1
Atom   4C    basis set group =>   1
Atom   5C    basis set group =>   1
Atom   6C    basis set group =>   1
Atom   7C    basis set group =>   1
Atom   8C    basis set group =>   1
Atom   9C    basis set group =>   1
Atom  10C    basis set group =>   1
Atom  11C    basis set group =>   1
Atom  12C    basis set group =>   1
Atom  13C    basis set group =>   1
Atom  14C    basis set group =>   1
Atom  15C    basis set group =>   1
Atom  16C    basis set group =>   1
Atom  17C    basis set group =>   1
Atom  18C    basis set group =>   1
Atom  19C    basis set group =>   1
Atom  20C    basis set group =>   1
Atom  21C    basis set group =>   1
Atom  22C    basis set group =>   1
Atom  23C    basis set group =>   1
Atom  24C    basis set group =>   1
Atom  25C    basis set group =>   1
Atom  26C    basis set group =>   1
Atom  27N    basis set group =>   2
Atom  28H    basis set group =>   3
Atom  29H    basis set group =>   3
Atom  30H    basis set group =>   3
Atom  31H    basis set group =>   3
Atom  32H    basis set group =>   3
Atom  33H    basis set group =>   3
Atom  34H    basis set group =>   3
Atom  35H    basis set group =>   3
Atom  36H    basis set group =>   3
Atom  37H    basis set group =>   3
Atom  38H    basis set group =>   3
Atom  39H    basis set group =>   3
Atom  40H    basis set group =>   3
Atom  41H    basis set group =>   3
Atom  42H    basis set group =>   3
Atom  43H    basis set group =>   3
Atom  44H    basis set group =>   3
Atom  45H    basis set group =>   3
Atom  46H    basis set group =>   3
Atom  47H    basis set group =>   3
Atom  48H    basis set group =>   3
Atom  49H    basis set group =>   3
Atom  50H    basis set group =>   3
Atom  51H    basis set group =>   3
Atom  52H    basis set group =>   3
Atom  53H    basis set group =>   3
Atom  54H    basis set group =>   3
Atom  55H    basis set group =>   3
Atom  56H    basis set group =>   3
Atom  57H    basis set group =>   3
Atom  58H    basis set group =>   3
Atom  59H    basis set group =>   3
Atom  60H    basis set group =>   3
Atom  61H    basis set group =>   3
Atom  62H    basis set group =>   3
Atom  63H    basis set group =>   3
---------------------------------
AUXILIARY/J BASIS SET INFORMATION
---------------------------------
There are 3 groups of distinct atoms

 Group   1 Type C   : 17s13p12d2f contracted to 17s13p12d2f pattern {11111111111111111/1111111111111/111111111111/11}
 Group   2 Type N   : 17s13p12d2f contracted to 17s13p12d2f pattern {11111111111111111/1111111111111/111111111111/11}
 Group   3 Type H   : 15s6p1d contracted to 15s6p1d pattern {111111111111111/111111/1}

Atom   0C    basis set group =>   1
Atom   1C    basis set group =>   1
Atom   2C    basis set group =>   1
Atom   3C    basis set group =>   1
Atom   4C    basis set group =>   1
Atom   5C    basis set group =>   1
Atom   6C    basis set group =>   1
Atom   7C    basis set group =>   1
Atom   8C    basis set group =>   1
Atom   9C    basis set group =>   1
Atom  10C    basis set group =>   1
Atom  11C    basis set group =>   1
Atom  12C    basis set group =>   1
Atom  13C    basis set group =>   1
Atom  14C    basis set group =>   1
Atom  15C    basis set group =>   1
Atom  16C    basis set group =>   1
Atom  17C    basis set group =>   1
Atom  18C    basis set group =>   1
Atom  19C    basis set group =>   1
Atom  20C    basis set group =>   1
Atom  21C    basis set group =>   1
Atom  22C    basis set group =>   1
Atom  23C    basis set group =>   1
Atom  24C    basis set group =>   1
Atom  25C    basis set group =>   1
Atom  26C    basis set group =>   1
Atom  27N    basis set group =>   2
Atom  28H    basis set group =>   3
Atom  29H    basis set group =>   3
Atom  30H    basis set group =>   3
Atom  31H    basis set group =>   3
Atom  32H    basis set group =>   3
Atom  33H    basis set group =>   3
Atom  34H    basis set group =>   3
Atom  35H    basis set group =>   3
Atom  36H    basis set group =>   3
Atom  37H    basis set group =>   3
Atom  38H    basis set group =>   3
Atom  39H    basis set group =>   3
Atom  40H    basis set group =>   3
Atom  41H    basis set group =>   3
Atom  42H    basis set group =>   3
Atom  43H    basis set group =>   3
Atom  44H    basis set group =>   3
Atom  45H    basis set group =>   3
Atom  46H    basis set group =>   3
Atom  47H    basis set group =>   3
Atom  48H    basis set group =>   3
Atom  49H    basis set group =>   3
Atom  50H    basis set group =>   3
Atom  51H    basis set group =>   3
Atom  52H    basis set group =>   3
Atom  53H    basis set group =>   3
Atom  54H    basis set group =>   3
Atom  55H    basis set group =>   3
Atom  56H    basis set group =>   3
Atom  57H    basis set group =>   3
Atom  58H    basis set group =>   3
Atom  59H    basis set group =>   3
Atom  60H    basis set group =>   3
Atom  61H    basis set group =>   3
Atom  62H    basis set group =>   3
Atom  63H    basis set group =>   3
---------------------------------
AUXILIARY/C BASIS SET INFORMATION
---------------------------------
There are 3 groups of distinct atoms

 Group   1 Type C   : 17s13p12d2f contracted to 17s13p12d2f pattern {11111111111111111/1111111111111/111111111111/11}
 Group   2 Type N   : 17s13p12d2f contracted to 17s13p12d2f pattern {11111111111111111/1111111111111/111111111111/11}
 Group   3 Type H   : 15s6p1d contracted to 15s6p1d pattern {111111111111111/111111/1}

Atom   0C    basis set group =>   1
Atom   1C    basis set group =>   1
Atom   2C    basis set group =>   1
Atom   3C    basis set group =>   1
Atom   4C    basis set group =>   1
Atom   5C    basis set group =>   1
Atom   6C    basis set group =>   1
Atom   7C    basis set group =>   1
Atom   8C    basis set group =>   1
Atom   9C    basis set group =>   1
Atom  10C    basis set group =>   1
Atom  11C    basis set group =>   1
Atom  12C    basis set group =>   1
Atom  13C    basis set group =>   1
Atom  14C    basis set group =>   1
Atom  15C    basis set group =>   1
Atom  16C    basis set group =>   1
Atom  17C    basis set group =>   1
Atom  18C    basis set group =>   1
Atom  19C    basis set group =>   1
Atom  20C    basis set group =>   1
Atom  21C    basis set group =>   1
Atom  22C    basis set group =>   1
Atom  23C    basis set group =>   1
Atom  24C    basis set group =>   1
Atom  25C    basis set group =>   1
Atom  26C    basis set group =>   1
Atom  27N    basis set group =>   2
Atom  28H    basis set group =>   3
Atom  29H    basis set group =>   3
Atom  30H    basis set group =>   3
Atom  31H    basis set group =>   3
Atom  32H    basis set group =>   3
Atom  33H    basis set group =>   3
Atom  34H    basis set group =>   3
Atom  35H    basis set group =>   3
Atom  36H    basis set group =>   3
Atom  37H    basis set group =>   3
Atom  38H    basis set group =>   3
Atom  39H    basis set group =>   3
Atom  40H    basis set group =>   3
Atom  41H    basis set group =>   3
Atom  42H    basis set group =>   3
Atom  43H    basis set group =>   3
Atom  44H    basis set group =>   3
Atom  45H    basis set group =>   3
Atom  46H    basis set group =>   3
Atom  47H    basis set group =>   3
Atom  48H    basis set group =>   3
Atom  49H    basis set group =>   3
Atom  50H    basis set group =>   3
Atom  51H    basis set group =>   3
Atom  52H    basis set group =>   3
Atom  53H    basis set group =>   3
Atom  54H    basis set group =>   3
Atom  55H    basis set group =>   3
Atom  56H    basis set group =>   3
Atom  57H    basis set group =>   3
Atom  58H    basis set group =>   3
Atom  59H    basis set group =>   3
Atom  60H    basis set group =>   3
Atom  61H    basis set group =>   3
Atom  62H    basis set group =>   3
Atom  63H    basis set group =>   3
----------------------------------
AUXILIARY/JK BASIS SET INFORMATION
----------------------------------
There are 3 groups of distinct atoms

 Group   1 Type C   : 17s13p12d2f contracted to 17s13p12d2f pattern {11111111111111111/1111111111111/111111111111/11}
 Group   2 Type N   : 17s13p12d2f contracted to 17s13p12d2f pattern {11111111111111111/1111111111111/111111111111/11}
 Group   3 Type H   : 15s6p1d contracted to 15s6p1d pattern {111111111111111/111111/1}

Atom   0C    basis set group =>   1
Atom   1C    basis set group =>   1
Atom   2C    basis set group =>   1
Atom   3C    basis set group =>   1
Atom   4C    basis set group =>   1
Atom   5C    basis set group =>   1
Atom   6C    basis set group =>   1
Atom   7C    basis set group =>   1
Atom   8C    basis set group =>   1
Atom   9C    basis set group =>   1
Atom  10C    basis set group =>   1
Atom  11C    basis set group =>   1
Atom  12C    basis set group =>   1
Atom  13C    basis set group =>   1
Atom  14C    basis set group =>   1
Atom  15C    basis set group =>   1
Atom  16C    basis set group =>   1
Atom  17C    basis set group =>   1
Atom  18C    basis set group =>   1
Atom  19C    basis set group =>   1
Atom  20C    basis set group =>   1
Atom  21C    basis set group =>   1
Atom  22C    basis set group =>   1
Atom  23C    basis set group =>   1
Atom  24C    basis set group =>   1
Atom  25C    basis set group =>   1
Atom  26C    basis set group =>   1
Atom  27N    basis set group =>   2
Atom  28H    basis set group =>   3
Atom  29H    basis set group =>   3
Atom  30H    basis set group =>   3
Atom  31H    basis set group =>   3
Atom  32H    basis set group =>   3
Atom  33H    basis set group =>   3
Atom  34H    basis set group =>   3
Atom  35H    basis set group =>   3
Atom  36H    basis set group =>   3
Atom  37H    basis set group =>   3
Atom  38H    basis set group =>   3
Atom  39H    basis set group =>   3
Atom  40H    basis set group =>   3
Atom  41H    basis set group =>   3
Atom  42H    basis set group =>   3
Atom  43H    basis set group =>   3
Atom  44H    basis set group =>   3
Atom  45H    basis set group =>   3
Atom  46H    basis set group =>   3
Atom  47H    basis set group =>   3
Atom  48H    basis set group =>   3
Atom  49H    basis set group =>   3
Atom  50H    basis set group =>   3
Atom  51H    basis set group =>   3
Atom  52H    basis set group =>   3
Atom  53H    basis set group =>   3
Atom  54H    basis set group =>   3
Atom  55H    basis set group =>   3
Atom  56H    basis set group =>   3
Atom  57H    basis set group =>   3
Atom  58H    basis set group =>   3
Atom  59H    basis set group =>   3
Atom  60H    basis set group =>   3
Atom  61H    basis set group =>   3
Atom  62H    basis set group =>   3
Atom  63H    basis set group =>   3


           ************************************************************
           *        Program running with 72 parallel MPI-processes    *
           *              working on a shared directory               *
           ************************************************************
------------------------------------------------------------------------------
                           ORCA GTO INTEGRAL CALCULATION
                           -- RI-GTO INTEGRALS CHOSEN --
------------------------------------------------------------------------------

                         BASIS SET STATISTICS AND STARTUP INFO

Gaussian basis set:
 # of primitive gaussian shells          ...  700
 # of primitive gaussian functions       ... 1164
 # of contracted shells                  ...  432
 # of contracted basis functions         ...  728
 Highest angular momentum                ...    2
 Maximum contraction depth               ...    5
Auxiliary gaussian basis set:
 # of primitive gaussian shells          ... 2024
 # of primitive gaussian functions       ... 5008
 # of contracted shells                  ... 2024
 # of contracted aux-basis functions     ... 5008
 Highest angular momentum                ...    3
 Maximum contraction depth               ...    1
Ratio of auxiliary to basis functions    ...  6.88
Integral package used                  ... LIBINT
 One Electron integrals                  ... done
 Ordering auxiliary basis shells         ... done
 Integral threshhold             Thresh  ...  1.000e-10
 Primitive cut-off               TCut    ...  1.000e-11
 Pre-screening matrix                    ... done
 Shell pair data                         ... 
 Ordering of the shell pairs             ... done (   0.014 sec) 66491 of 93528 pairs
 Determination of significant pairs      ... done (   0.000 sec)
 Creation of shell pair data             ... done (   0.009 sec)
 Storage of shell pair data              ... done (   0.154 sec)
 Shell pair data done in (   0.177 sec)
 Computing two index integrals           ... done
 Cholesky decomposition of the V-matrix  ... done


Timings:
 Total evaluation time                   ...   5.366 sec (  0.089 min)
 One electron matrix time                ...   1.179 sec (  0.020 min) = 22.0%
 Schwartz matrix evaluation time         ...   0.438 sec (  0.007 min) =  8.2%
 Two index repulsion integral time       ...   1.127 sec (  0.019 min) = 21.0%
 Cholesky decomposition of V             ...   2.261 sec (  0.038 min) = 42.1%
 Three index repulsion integral time     ...   0.000 sec (  0.000 min) =  0.0%



           ************************************************************
           *        Program running with 72 parallel MPI-processes    *
           *              working on a shared directory               *
           ************************************************************
-------------------------------------------------------------------------------
                                 ORCA SCF
-------------------------------------------------------------------------------

------------
SCF SETTINGS
------------
Hamiltonian:
 Density Functional     Method          .... DFT(GTOs)
 Exchange Functional    Exchange        .... PBE
   PBE kappa parameter   XKappa         ....  0.804000
   PBE mue parameter    XMuePBE         ....  0.219520
 Correlation Functional Correlation     .... PBE
   PBE beta parameter  CBetaPBE         ....  0.066725
 LDA part of GGA corr.  LDAOpt          .... PW91-LDA
 Gradients option       PostSCFGGA      .... off
   Density functional embedding theory  .... OFF
   NL short-range parameter             ....  6.400000
 RI-approximation to the Coulomb term is turned on
   Number of auxiliary basis functions  .... 5008
   RIJ-COSX (HFX calculated with COS-X)).... on


General Settings:
 Integral files         IntName         .... zfs
 Hartree-Fock type      HFTyp           .... UHF
 Total Charge           Charge          ....   -1
 Multiplicity           Mult            ....    3
 Number of Electrons    NEL             ....  206
 Basis Dimension        Dim             ....  728
 Nuclear Repulsion      ENuc            ....   3308.0184381492 Eh

Convergence Acceleration:
 DIIS                   CNVDIIS         .... on
   Start iteration      DIISMaxIt       ....    12
   Startup error        DIISStart       ....  0.200000
   # of expansion vecs  DIISMaxEq       ....     5
   Bias factor          DIISBfac        ....   1.050
   Max. coefficient     DIISMaxC        ....  10.000
 Newton-Raphson         CNVNR           .... off
 SOSCF                  CNVSOSCF        .... off
 Level Shifting         CNVShift        .... on
   Level shift para.    LevelShift      ....    0.2500
   Turn off err/grad.   ShiftErr        ....    0.0010
 Zerner damping         CNVZerner       .... off
 Static damping         CNVDamp         .... on
   Fraction old density DampFac         ....    0.7000
   Max. Damping (<1)    DampMax         ....    0.9800
   Min. Damping (>=0)   DampMin         ....    0.0000
   Turn off err/grad.   DampErr         ....    0.1000
 Fernandez-Rico         CNVRico         .... off

SCF Procedure:
 Maximum # iterations   MaxIter         ....   125
 SCF integral mode      SCFMode         .... Direct
   Integral package                     .... LIBINT
 Reset frequency        DirectResetFreq ....    20
 Integral Threshold     Thresh          ....  1.000e-10 Eh
 Primitive CutOff       TCut            ....  1.000e-11 Eh

Convergence Tolerance:
 Convergence Check Mode ConvCheckMode   .... Total+1el-Energy
 Convergence forced     ConvForced      .... 0
 Energy Change          TolE            ....  1.000e-06 Eh
 1-El. energy change                    ....  1.000e-03 Eh
 DIIS Error             TolErr          ....  1.000e-06


Diagonalization of the overlap matrix:
Smallest eigenvalue                        ... 1.744e-04
Time for diagonalization                   ...    0.146 sec
Threshold for overlap eigenvalues          ... 1.000e-08
Number of eigenvalues below threshold      ... 0
Time for construction of square roots      ...    0.458 sec
Total time needed                          ...    0.607 sec

-------------------
DFT GRID GENERATION
-------------------

General Integration Accuracy     IntAcc      ...  4.340
Radial Grid Type                 RadialGrid  ... Gauss-Chebyshev
Angular Grid (max. acc.)         AngularGrid ... Lebedev-110
Angular grid pruning method      GridPruning ... 3 (G Style)
Weight generation scheme         WeightScheme... Becke
Basis function cutoff            BFCut       ...    1.0000e-10
Integration weight cutoff        WCut        ...    1.0000e-14
Grids for H and He will be reduced by one unit

# of grid points (after initial pruning)     ...  74998 (   0.1 sec)
# of grid points (after weights+screening)   ...  62549 (   0.1 sec)
nearest neighbour list constructed           ...    0.0 sec
Grid point re-assignment to atoms done       ...    0.0 sec
Grid point division into batches done        ...    0.0 sec
Reduced shell lists constructed in    0.1 sec

Total number of grid points                  ...    62549
Total number of batches                      ...     1007
Average number of points per batch           ...       62
Average number of grid points per atom       ...      977
Average number of shells per batch           ...   226.40 (52.41%)
Average number of basis functions per batch  ...   454.80 (62.47%)
Average number of large shells per batch     ...   170.33 (75.24%)
Average number of large basis fcns per batch ...   339.00 (74.54%)
Maximum spatial batch extension              ...   2.21,  2.54,  2.38 au
Average spatial batch extension              ...   0.02,  0.03,  0.02 au

Time for grid setup =    0.672 sec

------------------------------
INITIAL GUESS: MODEL POTENTIAL
------------------------------
Loading Hartree-Fock densities                     ... done
Calculating cut-offs                               ... done
Setting up the integral package                    ... done
Initializing the effective Hamiltonian             ... done
Starting the Coulomb interaction                   ... done (   0.1 sec)
Reading the grid                                   ... done
Mapping shells                                     ... done
Starting the XC term evaluation                    ... done (   0.2 sec)
  promolecular density results
     # of electrons  =    204.967664365
     EX              =   -156.125634620
     EC              =     -7.166541717
     EX+EC           =   -163.292176337
Transforming the Hamiltonian                       ... done (   0.1 sec)
Diagonalizing the Hamiltonian                      ... done (   0.1 sec)
Back transforming the eigenvectors                 ... done (   0.1 sec)
Now organizing SCF variables                       ... done
                      ------------------
                      INITIAL GUESS DONE (   1.5 sec)
                      ------------------
--------------------
COSX GRID GENERATION
--------------------

General Integration Accuracy     IntAcc      ...  3.340
Radial Grid Type                 RadialGrid  ... Gauss-Chebyshev
Angular Grid (max. acc.)         AngularGrid ... Lebedev-50
Angular grid pruning method      GridPruning ... 3 (G Style)
Weight generation scheme         WeightScheme... Becke
Basis function cutoff            BFCut       ...    1.0000e-10
Integration weight cutoff        WCut        ...    1.0000e-14
Grids for H and He will be reduced by one unit

# of grid points (after initial pruning)     ...  27746 (   0.0 sec)
# of grid points (after weights+screening)   ...  23453 (   0.0 sec)
nearest neighbour list constructed           ...    0.0 sec
Grid point re-assignment to atoms done       ...    0.0 sec
Grid point division into batches done        ...    0.0 sec
Reduced shell lists constructed in    0.0 sec

Total number of grid points                  ...    23453
Total number of batches                      ...      393
Average number of points per batch           ...       59
Average number of grid points per atom       ...      366
Average number of shells per batch           ...   221.29 (51.22%)
Average number of basis functions per batch  ...   443.86 (60.97%)
Average number of large shells per batch     ...   165.14 (74.63%)
Average number of large basis fcns per batch ...   330.86 (74.54%)
Maximum spatial batch extension              ...   2.81,  2.70,  2.80 au
Average spatial batch extension              ...   0.04,  0.03,  0.03 au

Overlap Fitting                  UseSFitting ... on
Constructing numerical overlap ... done (      0.0 sec)
Inverting numerical overlap    ... done (      0.0 sec)
Obtaining analytic overlap     ... done (      0.1 sec)
Final contraction and storage  ... done (      0.1 sec)


General Integration Accuracy     IntAcc      ...  3.670
Radial Grid Type                 RadialGrid  ... Gauss-Chebyshev
Angular Grid (max. acc.)         AngularGrid ... Lebedev-50
Angular grid pruning method      GridPruning ... 3 (G Style)
Weight generation scheme         WeightScheme... Becke
Basis function cutoff            BFCut       ...    1.0000e-10
Integration weight cutoff        WCut        ...    1.0000e-14
Grids for H and He will be reduced by one unit

# of grid points (after initial pruning)     ...  35464 (   0.0 sec)
# of grid points (after weights+screening)   ...  29907 (   0.0 sec)
nearest neighbour list constructed           ...    0.0 sec
Grid point re-assignment to atoms done       ...    0.0 sec
Grid point division into batches done        ...    0.0 sec
Reduced shell lists constructed in    0.0 sec

Total number of grid points                  ...    29907
Total number of batches                      ...      502
Average number of points per batch           ...       59
Average number of grid points per atom       ...      467
Average number of shells per batch           ...   224.38 (51.94%)
Average number of basis functions per batch  ...   450.12 (61.83%)
Average number of large shells per batch     ...   169.38 (75.49%)
Average number of large basis fcns per batch ...   339.12 (75.34%)
Maximum spatial batch extension              ...   2.67,  3.03,  2.68 au
Average spatial batch extension              ...   0.03,  0.03,  0.03 au

Overlap Fitting                  UseSFitting ... on
Constructing numerical overlap ... done (      0.0 sec)
Inverting numerical overlap    ... done (      0.0 sec)
Obtaining analytic overlap     ... done (      0.0 sec)
Final contraction and storage  ... done (      0.1 sec)


General Integration Accuracy     IntAcc      ...  4.010
Radial Grid Type                 RadialGrid  ... Gauss-Chebyshev
Angular Grid (max. acc.)         AngularGrid ... Lebedev-110
Angular grid pruning method      GridPruning ... 3 (G Style)
Weight generation scheme         WeightScheme... Becke
Basis function cutoff            BFCut       ...    1.0000e-10
Integration weight cutoff        WCut        ...    1.0000e-14
Grids for H and He will be reduced by one unit

# of grid points (after initial pruning)     ...  65152 (   0.0 sec)
# of grid points (after weights+screening)   ...  54625 (   0.1 sec)
nearest neighbour list constructed           ...    0.0 sec
Grid point re-assignment to atoms done       ...    0.0 sec
Grid point division into batches done        ...    0.0 sec
Reduced shell lists constructed in    0.1 sec

Total number of grid points                  ...    54625
Total number of batches                      ...      882
Average number of points per batch           ...       61
Average number of grid points per atom       ...      854
Average number of shells per batch           ...   225.93 (52.30%)
Average number of basis functions per batch  ...   453.93 (62.35%)
Average number of large shells per batch     ...   169.93 (75.21%)
Average number of large basis fcns per batch ...   337.79 (74.41%)
Maximum spatial batch extension              ...   2.22,  2.49,  2.20 au
Average spatial batch extension              ...   0.03,  0.03,  0.03 au

Overlap Fitting                  UseSFitting ... on
Constructing numerical overlap ... done (      0.1 sec)
Inverting numerical overlap    ... done (      0.0 sec)
Obtaining analytic overlap     ... done (      0.0 sec)
Final contraction and storage  ... done (      0.1 sec)

Time for X-Grid setup             =    1.460 sec
--------------
SCF ITERATIONS
--------------
ITER       Energy         Delta-E        Max-DP      RMS-DP      [F,P]     Damp
               ***  Starting incremental Fock matrix formation  ***
  0  -1102.3546025080   0.000000000000 7.74608400  0.02042158  0.1511574 0.7000
  1  -1102.7798874036  -0.425284895565 4.80084218  0.01272136  0.0656740 0.7000
                               ***Turning on DIIS***
  2  -1102.8699596455  -0.090072241932 0.69529172  0.00357155  0.0352258 0.0000
  3  -1103.1234198948  -0.253460249309 4.43888213  0.01132280  0.0323414 0.0000
  4  -1103.1566555119  -0.033235617092 1.43345013  0.00365007  0.0198656 0.0000
  5  -1103.1660103408  -0.009354828931 0.63623284  0.00160487  0.0058047 0.0000
  6  -1103.1673524488  -0.001342107971 0.42559981  0.00108120  0.0014170 0.0000
  7  -1103.1675593553  -0.000206906444 0.25533516  0.00064043  0.0024092 0.0000
  8  -1103.1676644622  -0.000105106958 0.52667242  0.00131895  0.0005485 0.0000
  9  -1103.1677314496  -0.000066987398 0.09530368  0.00028978  0.0008111 0.0000
 10  -1103.1677378905  -0.000006440912 0.08454463  0.00022595  0.0005317 0.0000
 11  -1103.1677426646  -0.000004774084 0.02602042  0.00006696  0.0003677 0.0000
 12  -1103.1677447034  -0.000002038773 0.00853605  0.00001592  0.0000657 0.0000
 13  -1103.1677445486   0.000000154798 0.00540946  0.00001095  0.0000789 0.0000
                 **** Energy Check signals convergence ****

               *****************************************************
               *                     SUCCESS                       *
               *           SCF CONVERGED AFTER  14 CYCLES          *
               *****************************************************

Setting up the final grid:

General Integration Accuracy     IntAcc      ...  4.670
Radial Grid Type                 RadialGrid  ... Gauss-Chebyshev
Angular Grid (max. acc.)         AngularGrid ... Lebedev-302
Angular grid pruning method      GridPruning ... 3 (G Style)
Weight generation scheme         WeightScheme... Becke
Basis function cutoff            BFCut       ...    1.0000e-10
Integration weight cutoff        WCut        ...    1.0000e-14
Grids for H and He will be reduced by one unit

# of grid points (after initial pruning)     ... 296120 (   0.0 sec)
# of grid points (after weights+screening)   ... 239114 (   0.2 sec)
nearest neighbour list constructed           ...    0.0 sec
Grid point re-assignment to atoms done       ...    0.1 sec
Grid point division into batches done        ...    0.8 sec
Reduced shell lists constructed in    0.9 sec

Total number of grid points                  ...   239114
Total number of batches                      ...     3769
Average number of points per batch           ...       63
Average number of grid points per atom       ...     3736
Average number of shells per batch           ...   226.28 (52.38%)
Average number of basis functions per batch  ...   454.61 (62.45%)
Average number of large shells per batch     ...   168.26 (74.36%)
Average number of large basis fcns per batch ...   332.96 (73.24%)
Maximum spatial batch extension              ...   1.93,  2.13,  2.01 au
Average spatial batch extension              ...   0.02,  0.02,  0.02 au

Final grid set up in    1.3 sec
Final integration                            ... done (   0.9 sec)
Change in XC energy                          ...    -0.000297099
Integrated number of electrons               ...   206.000975426
Previous integrated no of electrons          ...   205.997456537

----------------
TOTAL SCF ENERGY
----------------

Total Energy       :        -1103.16804178 Eh          -30018.72854 eV

Components:
Nuclear Repulsion  :         3308.01843815 Eh           90015.75801 eV
Electronic Energy  :        -4411.18647993 Eh         -120034.48655 eV
One Electron Energy:        -8103.22234663 Eh         -220499.89005 eV
Two Electron Energy:         3692.03586670 Eh          100465.40350 eV

Virial components:
Potential Energy   :        -2203.46163339 Eh          -59959.23931 eV
Kinetic Energy     :         1100.29359161 Eh           29940.51077 eV
Virial Ratio       :            2.00261244


DFT components:
N(Alpha)           :      104.000571144618 electrons
N(Beta)            :      102.000404281389 electrons
N(Total)           :      206.000975426008 electrons
E(X)               :     -159.757728780273 Eh       
E(C)               :       -7.076870661991 Eh       
E(XC)              :     -166.834599442264 Eh       
DFET-embed. en.    :        0.000000000000 Eh       

---------------
SCF CONVERGENCE
---------------

  Last Energy change         ...   -1.3021e-07  Tolerance :   1.0000e-06
  Last MAX-Density change    ...    6.1787e-04  Tolerance :   1.0000e-05
  Last RMS-Density change    ...    1.9103e-06  Tolerance :   1.0000e-06
  Last DIIS Error            ...    2.9559e-05  Tolerance :   1.0000e-06

             **** THE GBW FILE WAS UPDATED (zfs.gbw) ****
             **** DENSITY FILE WAS UPDATED (zfs.scfp) ****
             **** ENERGY FILE WAS UPDATED (zfs.en.tmp) ****
----------------------
UHF SPIN CONTAMINATION
----------------------

Warning: in a DFT calculation there is little theoretical justification to 
         calculate <S**2> as in Hartree-Fock theory. We will do it anyways
         but you should keep in mind that the values have only limited relevance

Expectation value of <S**2>     :     2.011144
Ideal value S*(S+1) for S=1.0   :     2.000000
Deviation                       :     0.011144

             **** THE GBW FILE WAS UPDATED (zfs.gbw) ****
             **** DENSITY FILE WAS UPDATED (zfs.scfp) ****
----------------
ORBITAL ENERGIES
----------------
                 SPIN UP ORBITALS
  NO   OCC          E(Eh)            E(eV) 
   0   1.0000     -13.855757      -377.0343 
   1   1.0000      -9.801453      -266.7111 
   2   1.0000      -9.801135      -266.7024 
   3   1.0000      -9.801106      -266.7016 
   4   1.0000      -9.762884      -265.6616 
   5   1.0000      -9.762752      -265.6580 
   6   1.0000      -9.762686      -265.6562 
   7   1.0000      -9.762627      -265.6546 
   8   1.0000      -9.762582      -265.6534 
   9   1.0000      -9.762512      -265.6515 
  10   1.0000      -9.755617      -265.4638 
  11   1.0000      -9.755494      -265.4605 
  12   1.0000      -9.755484      -265.4602 
  13   1.0000      -9.749178      -265.2886 
  14   1.0000      -9.749116      -265.2869 
  15   1.0000      -9.748755      -265.2771 
  16   1.0000      -9.748563      -265.2719 
  17   1.0000      -9.748387      -265.2671 
  18   1.0000      -9.747982      -265.2561 
  19   1.0000      -9.739926      -265.0369 
  20   1.0000      -9.739694      -265.0306 
  21   1.0000      -9.739057      -265.0132 
  22   1.0000      -9.735529      -264.9172 
  23   1.0000      -9.735512      -264.9168 
  24   1.0000      -9.735378      -264.9131 
  25   1.0000      -9.734655      -264.8934 
  26   1.0000      -9.734249      -264.8824 
  27   1.0000      -9.734133      -264.8792 
  28   1.0000      -0.729713       -19.8565 
  29   1.0000      -0.667405       -18.1610 
  30   1.0000      -0.652359       -17.7516 
  31   1.0000      -0.652234       -17.7482 
  32   1.0000      -0.609352       -16.5813 
  33   1.0000      -0.598215       -16.2783 
  34   1.0000      -0.598015       -16.2728 
  35   1.0000      -0.582444       -15.8491 
  36   1.0000      -0.582310       -15.8455 
  37   1.0000      -0.545778       -14.8514 
  38   1.0000      -0.521550       -14.1921 
  39   1.0000      -0.521536       -14.1917 
  40   1.0000      -0.518952       -14.1214 
  41   1.0000      -0.515904       -14.0385 
  42   1.0000      -0.515752       -14.0343 
  43   1.0000      -0.501957       -13.6589 
  44   1.0000      -0.444687       -12.1005 
  45   1.0000      -0.444604       -12.0983 
  46   1.0000      -0.423892       -11.5347 
  47   1.0000      -0.405311       -11.0291 
  48   1.0000      -0.405265       -11.0278 
  49   1.0000      -0.400250       -10.8913 
  50   1.0000      -0.397479       -10.8160 
  51   1.0000      -0.384060       -10.4508 
  52   1.0000      -0.383933       -10.4473 
  53   1.0000      -0.358443        -9.7537 
  54   1.0000      -0.357961        -9.7406 
  55   1.0000      -0.357841        -9.7373 
  56   1.0000      -0.346437        -9.4270 
  57   1.0000      -0.312925        -8.5151 
  58   1.0000      -0.308981        -8.4078 
  59   1.0000      -0.308890        -8.4053 
  60   1.0000      -0.301296        -8.1987 
  61   1.0000      -0.301245        -8.1973 
  62   1.0000      -0.282110        -7.6766 
  63   1.0000      -0.279285        -7.5997 
  64   1.0000      -0.279181        -7.5969 
  65   1.0000      -0.275613        -7.4998 
  66   1.0000      -0.275576        -7.4988 
  67   1.0000      -0.242662        -6.6032 
  68   1.0000      -0.242555        -6.6002 
  69   1.0000      -0.238275        -6.4838 
  70   1.0000      -0.231009        -6.2861 
  71   1.0000      -0.228432        -6.2159 
  72   1.0000      -0.226271        -6.1572 
  73   1.0000      -0.226220        -6.1557 
  74   1.0000      -0.212459        -5.7813 
  75   1.0000      -0.212360        -5.7786 
  76   1.0000      -0.210097        -5.7170 
  77   1.0000      -0.197015        -5.3610 
  78   1.0000      -0.190605        -5.1866 
  79   1.0000      -0.190592        -5.1863 
  80   1.0000      -0.179321        -4.8796 
  81   1.0000      -0.179299        -4.8790 
  82   1.0000      -0.171372        -4.6633 
  83   1.0000      -0.166747        -4.5374 
  84   1.0000      -0.166731        -4.5370 
  85   1.0000      -0.161160        -4.3854 
  86   1.0000      -0.158653        -4.3172 
  87   1.0000      -0.156245        -4.2516 
  88   1.0000      -0.156178        -4.2498 
  89   1.0000      -0.146948        -3.9987 
  90   1.0000      -0.146854        -3.9961 
  91   1.0000      -0.135096        -3.6761 
  92   1.0000      -0.119906        -3.2628 
  93   1.0000      -0.119877        -3.2620 
  94   1.0000      -0.095622        -2.6020 
  95   1.0000      -0.095566        -2.6005 
  96   1.0000      -0.092617        -2.5202 
  97   1.0000      -0.077023        -2.0959 
  98   1.0000      -0.059121        -1.6088 
  99   1.0000      -0.056852        -1.5470 
 100   1.0000      -0.056521        -1.5380 
 101   1.0000       0.002086         0.0568 
 102   1.0000       0.047437         1.2908 
 103   1.0000       0.047521         1.2931 
 104   0.0000       0.096969         2.6387 
 105   0.0000       0.113782         3.0962 
 106   0.0000       0.116256         3.1635 
 107   0.0000       0.117319         3.1924 
 108   0.0000       0.124706         3.3934 
 109   0.0000       0.125155         3.4056 
 110   0.0000       0.126537         3.4433 
 111   0.0000       0.130550         3.5524 
 112   0.0000       0.131521         3.5789 
 113   0.0000       0.140699         3.8286 
 114   0.0000       0.143137         3.8949 
 115   0.0000       0.143660         3.9092 
 116   0.0000       0.150413         4.0929 
 117   0.0000       0.151722         4.1286 
 118   0.0000       0.152766         4.1570 
 119   0.0000       0.155474         4.2307 
 120   0.0000       0.179247         4.8775 
 121   0.0000       0.180120         4.9013 
 122   0.0000       0.183955         5.0057 
 123   0.0000       0.184700         5.0260 
 124   0.0000       0.185109         5.0371 
 125   0.0000       0.185721         5.0537 
 126   0.0000       0.193477         5.2648 
 127   0.0000       0.194041         5.2801 
 128   0.0000       0.195935         5.3317 
 129   0.0000       0.228224         6.2103 
 130   0.0000       0.228272         6.2116 
 131   0.0000       0.230094         6.2612 
 132   0.0000       0.239472         6.5164 
 133   0.0000       0.246498         6.7076 
 134   0.0000       0.250060         6.8045 
 135   0.0000       0.250239         6.8093 
 136   0.0000       0.252141         6.8611 
 137   0.0000       0.252339         6.8665 
 138   0.0000       0.275077         7.4852 
 139   0.0000       0.276755         7.5309 
 140   0.0000       0.277327         7.5464 
 141   0.0000       0.283474         7.7137 
 142   0.0000       0.284202         7.7335 
 143   0.0000       0.292093         7.9483 
 144   0.0000       0.292886         7.9698 
 145   0.0000       0.293205         7.9785 
 146   0.0000       0.296516         8.0686 
 147   0.0000       0.297227         8.0880 
 148   0.0000       0.297950         8.1076 
 149   0.0000       0.299381         8.1466 
 150   0.0000       0.308426         8.3927 
 151   0.0000       0.308633         8.3983 
 152   0.0000       0.310717         8.4550 
 153   0.0000       0.312109         8.4929 
 154   0.0000       0.314218         8.5503 
 155   0.0000       0.327619         8.9150 
 156   0.0000       0.332005         9.0343 
 157   0.0000       0.332187         9.0393 
 158   0.0000       0.340915         9.2768 
 159   0.0000       0.343737         9.3536 
 160   0.0000       0.344084         9.3630 
 161   0.0000       0.354910         9.6576 
 162   0.0000       0.355688         9.6788 
 163   0.0000       0.356982         9.7140 
 164   0.0000       0.366290         9.9673 
 165   0.0000       0.372520        10.1368 
 166   0.0000       0.373079        10.1520 
 167   0.0000       0.374068        10.1789 
 168   0.0000       0.381893        10.3918 
 169   0.0000       0.382305        10.4031 
 170   0.0000       0.382839        10.4176 
 171   0.0000       0.389041        10.5863 
 172   0.0000       0.389729        10.6051 
 173   0.0000       0.390182        10.6174 
 174   0.0000       0.393183        10.6991 
 175   0.0000       0.393389        10.7047 
 176   0.0000       0.394339        10.7305 
 177   0.0000       0.397689        10.8217 
 178   0.0000       0.397856        10.8262 
 179   0.0000       0.411008        11.1841 
 180   0.0000       0.411578        11.1996 
 181   0.0000       0.413585        11.2542 
 182   0.0000       0.427401        11.6302 
 183   0.0000       0.428269        11.6538 
 184   0.0000       0.428352        11.6561 
 185   0.0000       0.428986        11.6733 
 186   0.0000       0.429207        11.6793 
 187   0.0000       0.431686        11.7468 
 188   0.0000       0.433232        11.7888 
 189   0.0000       0.433511        11.7964 
 190   0.0000       0.437089        11.8938 
 191   0.0000       0.437940        11.9169 
 192   0.0000       0.438628        11.9357 
 193   0.0000       0.451109        12.2753 
 194   0.0000       0.460800        12.5390 
 195   0.0000       0.461141        12.5483 
 196   0.0000       0.467286        12.7155 
 197   0.0000       0.470807        12.8113 
 198   0.0000       0.472246        12.8505 
 199   0.0000       0.473100        12.8737 
 200   0.0000       0.482200        13.1213 
 201   0.0000       0.483230        13.1494 
 202   0.0000       0.498723        13.5709 
 203   0.0000       0.507826        13.8186 
 204   0.0000       0.509670        13.8688 
 205   0.0000       0.510782        13.8991 
 206   0.0000       0.515269        14.0212 
 207   0.0000       0.516927        14.0663 
 208   0.0000       0.527347        14.3498 
 209   0.0000       0.534293        14.5388 
 210   0.0000       0.536084        14.5876 
 211   0.0000       0.537874        14.6363 
 212   0.0000       0.541940        14.7469 
 213   0.0000       0.546691        14.8762 
 214   0.0000       0.548454        14.9242 
 215   0.0000       0.551176        14.9983 
 216   0.0000       0.558035        15.1849 
 217   0.0000       0.558819        15.2062 
 218   0.0000       0.559059        15.2128 
 219   0.0000       0.575201        15.6520 
 220   0.0000       0.579347        15.7648 
 221   0.0000       0.581342        15.8191 
 222   0.0000       0.590098        16.0574 
 223   0.0000       0.591050        16.0833 
 224   0.0000       0.600560        16.3421 
 225   0.0000       0.603071        16.4104 
 226   0.0000       0.605047        16.4642 
 227   0.0000       0.608003        16.5446 
 228   0.0000       0.615840        16.7579 
 229   0.0000       0.618743        16.8369 
 230   0.0000       0.619354        16.8535 
 231   0.0000       0.619907        16.8685 
 232   0.0000       0.621915        16.9232 
 233   0.0000       0.623671        16.9710 
 234   0.0000       0.624624        16.9969 
 235   0.0000       0.625236        17.0135 
 236   0.0000       0.634225        17.2581 
 237   0.0000       0.644849        17.5472 
 238   0.0000       0.645059        17.5529 
 239   0.0000       0.646854        17.6018 
 240   0.0000       0.657551        17.8929 
 241   0.0000       0.658171        17.9097 
 242   0.0000       0.664365        18.0783 
 243   0.0000       0.679012        18.4768 
 244   0.0000       0.697053        18.9678 
 245   0.0000       0.698885        19.0176 
 246   0.0000       0.702677        19.1208 
 247   0.0000       0.703468        19.1423 
 248   0.0000       0.708370        19.2757 
 249   0.0000       0.713889        19.4259 
 250   0.0000       0.714047        19.4302 
 251   0.0000       0.714582        19.4448 
 252   0.0000       0.730318        19.8730 
 253   0.0000       0.736007        20.0278 
 254   0.0000       0.737577        20.0705 
 255   0.0000       0.737742        20.0750 
 256   0.0000       0.743727        20.2378 
 257   0.0000       0.746491        20.3131 
 258   0.0000       0.758691        20.6450 
 259   0.0000       0.759195        20.6588 
 260   0.0000       0.761236        20.7143 
 261   0.0000       0.761281        20.7155 
 262   0.0000       0.762041        20.7362 
 263   0.0000       0.779565        21.2130 
 264   0.0000       0.812141        22.0995 
 265   0.0000       0.828451        22.5433 
 266   0.0000       0.852829        23.2067 
 267   0.0000       0.853087        23.2137 
 268   0.0000       0.857009        23.3204 
 269   0.0000       0.857656        23.3380 
 270   0.0000       0.896186        24.3865 
 271   0.0000       0.898903        24.4604 
 272   0.0000       0.906358        24.6633 
 273   0.0000       0.907855        24.7040 
 274   0.0000       0.916315        24.9342 
 275   0.0000       0.923194        25.1214 
 276   0.0000       0.924307        25.1517 
 277   0.0000       0.942552        25.6481 
 278   0.0000       0.950687        25.8695 
 279   0.0000       0.951907        25.9027 
 280   0.0000       0.956374        26.0243 
 281   0.0000       0.957681        26.0598 
 282   0.0000       0.958779        26.0897 
 283   0.0000       0.961612        26.1668 
 284   0.0000       0.964688        26.2505 
 285   0.0000       0.965518        26.2731 
 286   0.0000       0.984513        26.7900 
 287   0.0000       1.007555        27.4170 
 288   0.0000       1.010798        27.5052 
 289   0.0000       1.011517        27.5248 
 290   0.0000       1.016165        27.6513 
 291   0.0000       1.017281        27.6816 
 292   0.0000       1.018202        27.7067 
 293   0.0000       1.030266        28.0350 
 294   0.0000       1.030462        28.0403 
 295   0.0000       1.039680        28.2911 
 296   0.0000       1.040543        28.3146 
 297   0.0000       1.041605        28.3435 
 298   0.0000       1.046378        28.4734 
 299   0.0000       1.046909        28.4879 
 300   0.0000       1.054602        28.6972 
 301   0.0000       1.060501        28.8577 
 302   0.0000       1.060733        28.8640 
 303   0.0000       1.061304        28.8795 
 304   0.0000       1.067097        29.0372 
 305   0.0000       1.067570        29.0500 
 306   0.0000       1.070402        29.1271 
 307   0.0000       1.088464        29.6186 
 308   0.0000       1.094953        29.7952 
 309   0.0000       1.097147        29.8549 
 310   0.0000       1.125070        30.6147 
 311   0.0000       1.131179        30.7809 
 312   0.0000       1.131585        30.7920 
 313   0.0000       1.132541        30.8180 
 314   0.0000       1.135357        30.8946 
 315   0.0000       1.136134        30.9158 
 316   0.0000       1.140152        31.0251 
 317   0.0000       1.141259        31.0552 
 318   0.0000       1.141865        31.0717 
 319   0.0000       1.146400        31.1951 
 320   0.0000       1.147749        31.2318 
 321   0.0000       1.148790        31.2602 
 322   0.0000       1.149531        31.2803 
 323   0.0000       1.152996        31.3746 
 324   0.0000       1.153711        31.3941 
 325   0.0000       1.154904        31.4265 
 326   0.0000       1.155506        31.4429 
 327   0.0000       1.160789        31.5867 
 328   0.0000       1.161074        31.5944 
 329   0.0000       1.170289        31.8452 
 330   0.0000       1.204067        32.7643 
 331   0.0000       1.205184        32.7947 
 332   0.0000       1.205435        32.8015 
 333   0.0000       1.206516        32.8310 
 334   0.0000       1.208982        32.8981 
 335   0.0000       1.209430        32.9103 
 336   0.0000       1.214246        33.0413 
 337   0.0000       1.214878        33.0585 
 338   0.0000       1.215321        33.0706 
 339   0.0000       1.216291        33.0970 
 340   0.0000       1.233572        33.5672 
 341   0.0000       1.233776        33.5727 
 342   0.0000       1.249423        33.9985 
 343   0.0000       1.270607        34.5750 
 344   0.0000       1.279502        34.8170 
 345   0.0000       1.279861        34.8268 
 346   0.0000       1.282483        34.8981 
 347   0.0000       1.290193        35.1079 
 348   0.0000       1.294275        35.2190 
 349   0.0000       1.294987        35.2384 
 350   0.0000       1.307296        35.5733 
 351   0.0000       1.308433        35.6043 
 352   0.0000       1.313454        35.7409 
 353   0.0000       1.327909        36.1342 
 354   0.0000       1.330420        36.2026 
 355   0.0000       1.331118        36.2216 
 356   0.0000       1.368201        37.2306 
 357   0.0000       1.368699        37.2442 
 358   0.0000       1.381999        37.6061 
 359   0.0000       1.384743        37.6808 
 360   0.0000       1.385481        37.7008 
 361   0.0000       1.402940        38.1759 
 362   0.0000       1.403670        38.1958 
 363   0.0000       1.405127        38.2355 
 364   0.0000       1.412013        38.4228 
 365   0.0000       1.428928        38.8831 
 366   0.0000       1.429647        38.9027 
 367   0.0000       1.437942        39.1284 
 368   0.0000       1.440512        39.1983 
 369   0.0000       1.441008        39.2118 
 370   0.0000       1.455070        39.5945 
 371   0.0000       1.455874        39.6163 
 372   0.0000       1.464229        39.8437 
 373   0.0000       1.485150        40.4130 
 374   0.0000       1.486972        40.4626 
 375   0.0000       1.487772        40.4843 
 376   0.0000       1.496342        40.7175 
 377   0.0000       1.497635        40.7527 
 378   0.0000       1.498259        40.7697 
 379   0.0000       1.505554        40.9682 
 380   0.0000       1.507089        41.0100 
 381   0.0000       1.508412        41.0460 
 382   0.0000       1.511720        41.1360 
 383   0.0000       1.517870        41.3033 
 384   0.0000       1.519126        41.3375 
 385   0.0000       1.530858        41.6568 
 386   0.0000       1.532750        41.7083 
 387   0.0000       1.533328        41.7240 
 388   0.0000       1.539686        41.8970 
 389   0.0000       1.540551        41.9205 
 390   0.0000       1.541147        41.9367 
 391   0.0000       1.553834        42.2820 
 392   0.0000       1.565136        42.5895 
 393   0.0000       1.565281        42.5935 
 394   0.0000       1.566473        42.6259 
 395   0.0000       1.571368        42.7591 
 396   0.0000       1.572135        42.7800 
 397   0.0000       1.583311        43.0841 
 398   0.0000       1.598607        43.5003 
 399   0.0000       1.598955        43.5098 
 400   0.0000       1.611803        43.8594 
 401   0.0000       1.615511        43.9603 
 402   0.0000       1.616440        43.9856 
 403   0.0000       1.621187        44.1147 
 404   0.0000       1.641954        44.6798 
 405   0.0000       1.645373        44.7729 
 406   0.0000       1.651062        44.9277 
 407   0.0000       1.651487        44.9392 
 408   0.0000       1.662420        45.2367 
 409   0.0000       1.662746        45.2456 
 410   0.0000       1.668406        45.3996 
 411   0.0000       1.668653        45.4064 
 412   0.0000       1.686205        45.8840 
 413   0.0000       1.686595        45.8946 
 414   0.0000       1.687929        45.9309 
 415   0.0000       1.688142        45.9367 
 416   0.0000       1.688283        45.9405 
 417   0.0000       1.708025        46.4777 
 418   0.0000       1.731405        47.1139 
 419   0.0000       1.731780        47.1241 
 420   0.0000       1.736022        47.2396 
 421   0.0000       1.744375        47.4669 
 422   0.0000       1.745275        47.4913 
 423   0.0000       1.750032        47.6208 
 424   0.0000       1.752568        47.6898 
 425   0.0000       1.753121        47.7049 
 426   0.0000       1.763304        47.9819 
 427   0.0000       1.763499        47.9872 
 428   0.0000       1.781033        48.4644 
 429   0.0000       1.801271        49.0151 
 430   0.0000       1.802041        49.0360 
 431   0.0000       1.806779        49.1650 
 432   0.0000       1.806987        49.1706 
 433   0.0000       1.812309        49.3154 
 434   0.0000       1.812699        49.3261 
 435   0.0000       1.819393        49.5082 
 436   0.0000       1.819789        49.5190 
 437   0.0000       1.825320        49.6695 
 438   0.0000       1.832455        49.8636 
 439   0.0000       1.832893        49.8755 
 440   0.0000       1.835567        49.9483 
 441   0.0000       1.840467        50.0817 
 442   0.0000       1.841177        50.1010 
 443   0.0000       1.851296        50.3763 
 444   0.0000       1.855832        50.4997 
 445   0.0000       1.855894        50.5014 
 446   0.0000       1.857642        50.5490 
 447   0.0000       1.858289        50.5666 
 448   0.0000       1.858863        50.5822 
 449   0.0000       1.870154        50.8895 
 450   0.0000       1.905641        51.8551 
 451   0.0000       1.906255        51.8718 
 452   0.0000       1.907280        51.8997 
 453   0.0000       1.926090        52.4116 
 454   0.0000       1.930834        52.5407 
 455   0.0000       1.933034        52.6005 
 456   0.0000       1.939657        52.7807 
 457   0.0000       1.939972        52.7893 
 458   0.0000       1.943790        52.8932 
 459   0.0000       1.944635        52.9162 
 460   0.0000       1.950964        53.0884 
 461   0.0000       1.951109        53.0924 
 462   0.0000       1.967252        53.5316 
 463   0.0000       1.969414        53.5905 
 464   0.0000       1.971302        53.6419 
 465   0.0000       1.971480        53.6467 
 466   0.0000       1.993139        54.2361 
 467   0.0000       1.997402        54.3521 
 468   0.0000       1.997529        54.3555 
 469   0.0000       2.007359        54.6230 
 470   0.0000       2.007471        54.6261 
 471   0.0000       2.015265        54.8382 
 472   0.0000       2.017150        54.8894 
 473   0.0000       2.017693        54.9042 
 474   0.0000       2.024044        55.0771 
 475   0.0000       2.032724        55.3132 
 476   0.0000       2.033181        55.3257 
 477   0.0000       2.039694        55.5029 
 478   0.0000       2.040185        55.5163 
 479   0.0000       2.043488        55.6061 
 480   0.0000       2.052736        55.8578 
 481   0.0000       2.053232        55.8713 
 482   0.0000       2.069123        56.3037 
 483   0.0000       2.081926        56.6521 
 484   0.0000       2.084772        56.7295 
 485   0.0000       2.086832        56.7856 
 486   0.0000       2.087306        56.7985 
 487   0.0000       2.105849        57.3031 
 488   0.0000       2.106129        57.3107 
 489   0.0000       2.110556        57.4311 
 490   0.0000       2.118611        57.6503 
 491   0.0000       2.118716        57.6532 
 492   0.0000       2.124625        57.8140 
 493   0.0000       2.126118        57.8546 
 494   0.0000       2.126471        57.8642 
 495   0.0000       2.151217        58.5376 
 496   0.0000       2.163011        58.8585 
 497   0.0000       2.179055        59.2951 
 498   0.0000       2.179439        59.3056 
 499   0.0000       2.193471        59.6874 
 500   0.0000       2.209450        60.1222 
 501   0.0000       2.213368        60.2288 
 502   0.0000       2.213908        60.2435 
 503   0.0000       2.224011        60.5184 
 504   0.0000       2.224934        60.5435 
 505   0.0000       2.224990        60.5451 
 506   0.0000       2.229480        60.6672 
 507   0.0000       2.229733        60.6741 
 508   0.0000       2.250511        61.2395 
 509   0.0000       2.250733        61.2456 
 510   0.0000       2.274545        61.8935 
 511   0.0000       2.275093        61.9084 
 512   0.0000       2.290736        62.3341 
 513   0.0000       2.296288        62.4852 
 514   0.0000       2.307775        62.7978 
 515   0.0000       2.308031        62.8047 
 516   0.0000       2.314375        62.9773 
 517   0.0000       2.326555        63.3088 
 518   0.0000       2.348008        63.8926 
 519   0.0000       2.348190        63.8975 
 520   0.0000       2.359012        64.1920 
 521   0.0000       2.359475        64.2046 
 522   0.0000       2.359713        64.2111 
 523   0.0000       2.395546        65.1861 
 524   0.0000       2.395668        65.1895 
 525   0.0000       2.417948        65.7957 
 526   0.0000       2.423792        65.9547 
 527   0.0000       2.424118        65.9636 
 528   0.0000       2.426653        66.0326 
 529   0.0000       2.435445        66.2718 
 530   0.0000       2.436157        66.2912 
 531   0.0000       2.446383        66.5695 
 532   0.0000       2.456813        66.8533 
 533   0.0000       2.457114        66.8615 
 534   0.0000       2.468086        67.1600 
 535   0.0000       2.468716        67.1772 
 536   0.0000       2.474247        67.3277 
 537   0.0000       2.479554        67.4721 
 538   0.0000       2.511284        68.3355 
 539   0.0000       2.512040        68.3561 
 540   0.0000       2.522417        68.6385 
 541   0.0000       2.550324        69.3978 
 542   0.0000       2.564762        69.7907 
 543   0.0000       2.565481        69.8103 
 544   0.0000       2.584348        70.3237 
 545   0.0000       2.588239        70.4296 
 546   0.0000       2.600110        70.7526 
 547   0.0000       2.600320        70.7583 
 548   0.0000       2.616718        71.2045 
 549   0.0000       2.617579        71.2280 
 550   0.0000       2.632969        71.6467 
 551   0.0000       2.633329        71.6565 
 552   0.0000       2.633567        71.6630 
 553   0.0000       2.671677        72.7000 
 554   0.0000       2.682865        73.0045 
 555   0.0000       2.694614        73.3242 
 556   0.0000       2.694922        73.3326 
 557   0.0000       2.739707        74.5512 
 558   0.0000       2.745378        74.7055 
 559   0.0000       2.747915        74.7746 
[...]
 521( 0) :     2.359478 a.u.    64.205 eV
 522( 0) :     2.359713 a.u.    64.211 eV
 523( 0) :     2.395543 a.u.    65.186 eV
 524( 0) :     2.395673 a.u.    65.190 eV
 525( 0) :     2.417950 a.u.    65.796 eV
 526( 0) :     2.423793 a.u.    65.955 eV
 527( 0) :     2.424120 a.u.    65.964 eV
 528( 0) :     2.426657 a.u.    66.033 eV
 529( 0) :     2.435445 a.u.    66.272 eV
 530( 0) :     2.436158 a.u.    66.291 eV
 531( 0) :     2.446384 a.u.    66.569 eV
 532( 0) :     2.456816 a.u.    66.853 eV
 533( 0) :     2.457116 a.u.    66.862 eV
 534( 0) :     2.468088 a.u.    67.160 eV
 535( 0) :     2.468718 a.u.    67.177 eV
 536( 0) :     2.474250 a.u.    67.328 eV
 537( 0) :     2.479553 a.u.    67.472 eV
 538( 0) :     2.511285 a.u.    68.336 eV
 539( 0) :     2.512042 a.u.    68.356 eV
 540( 0) :     2.522416 a.u.    68.638 eV
 541( 0) :     2.550326 a.u.    69.398 eV
 542( 0) :     2.564762 a.u.    69.791 eV
 543( 0) :     2.565479 a.u.    69.810 eV
 544( 0) :     2.584352 a.u.    70.324 eV
 545( 0) :     2.588233 a.u.    70.429 eV
 546( 0) :     2.600110 a.u.    70.753 eV
 547( 0) :     2.600321 a.u.    70.758 eV
 548( 0) :     2.616718 a.u.    71.205 eV
 549( 0) :     2.617576 a.u.    71.228 eV
 550( 0) :     2.632970 a.u.    71.647 eV
 551( 0) :     2.633329 a.u.    71.657 eV
 552( 0) :     2.633567 a.u.    71.663 eV
 553( 0) :     2.671677 a.u.    72.700 eV
 554( 0) :     2.682865 a.u.    73.004 eV
 555( 0) :     2.694614 a.u.    73.324 eV
 556( 0) :     2.694921 a.u.    73.333 eV
 557( 0) :     2.739711 a.u.    74.551 eV
 558( 0) :     2.745380 a.u.    74.706 eV
 559( 0) :     2.747916 a.u.    74.775 eV
 560( 0) :     2.748059 a.u.    74.778 eV
 561( 0) :     2.757977 a.u.    75.048 eV
 562( 0) :     2.758184 a.u.    75.054 eV
 563( 0) :     2.768245 a.u.    75.328 eV
 564( 0) :     2.768544 a.u.    75.336 eV
 565( 0) :     2.777423 a.u.    75.578 eV
 566( 0) :     2.785058 a.u.    75.785 eV
 567( 0) :     2.785428 a.u.    75.795 eV
 568( 0) :     2.791146 a.u.    75.951 eV
 569( 0) :     2.796089 a.u.    76.085 eV
 570( 0) :     2.796350 a.u.    76.093 eV
 571( 0) :     2.798388 a.u.    76.148 eV
 572( 0) :     2.818785 a.u.    76.703 eV
 573( 0) :     2.819638 a.u.    76.726 eV
 574( 0) :     2.856972 a.u.    77.742 eV
 575( 0) :     2.859727 a.u.    77.817 eV
 576( 0) :     2.860326 a.u.    77.833 eV
 577( 0) :     2.875900 a.u.    78.257 eV
 578( 0) :     2.875945 a.u.    78.258 eV
 579( 0) :     2.910744 a.u.    79.205 eV
 580( 0) :     2.911284 a.u.    79.220 eV
 581( 0) :     2.922626 a.u.    79.529 eV
 582( 0) :     2.922970 a.u.    79.538 eV
 583( 0) :     2.924792 a.u.    79.588 eV
 584( 0) :     2.934241 a.u.    79.845 eV
 585( 0) :     2.963032 a.u.    80.628 eV
 586( 0) :     2.964082 a.u.    80.657 eV
 587( 0) :     2.975499 a.u.    80.967 eV
 588( 0) :     2.986485 a.u.    81.266 eV
 589( 0) :     2.987110 a.u.    81.283 eV
 590( 0) :     3.063069 a.u.    83.350 eV
 591( 0) :     3.063442 a.u.    83.360 eV
 592( 0) :     3.067040 a.u.    83.458 eV
 593( 0) :     3.140881 a.u.    85.468 eV
 594( 0) :     3.799940 a.u.   103.402 eV
 595( 0) :     3.805374 a.u.   103.549 eV
 596( 0) :     3.834717 a.u.   104.348 eV
 597( 0) :     3.850299 a.u.   104.772 eV
 598( 0) :     3.885417 a.u.   105.728 eV
 599( 0) :     3.885897 a.u.   105.741 eV
 600( 0) :     5.167282 a.u.   140.609 eV
 601( 0) :     5.167595 a.u.   140.617 eV
 602( 0) :     5.176349 a.u.   140.856 eV
 603( 0) :     5.181888 a.u.   141.006 eV
 604( 0) :     5.182531 a.u.   141.024 eV
 605( 0) :     5.185003 a.u.   141.091 eV
 606( 0) :     5.280387 a.u.   143.687 eV
 607( 0) :     5.280477 a.u.   143.689 eV
 608( 0) :     5.285537 a.u.   143.827 eV
 609( 0) :     5.287578 a.u.   143.882 eV
 610( 0) :     5.287604 a.u.   143.883 eV
 611( 0) :     5.289816 a.u.   143.943 eV
 612( 0) :     5.298368 a.u.   144.176 eV
 613( 0) :     5.298499 a.u.   144.179 eV
 614( 0) :     5.301132 a.u.   144.251 eV
 615( 0) :     5.319094 a.u.   144.740 eV
 616( 0) :     5.319271 a.u.   144.745 eV
 617( 0) :     5.338328 a.u.   145.263 eV
 618( 0) :     5.371417 a.u.   146.164 eV
 619( 0) :     5.372130 a.u.   146.183 eV
 620( 0) :     5.383213 a.u.   146.485 eV
 621( 0) :     5.399068 a.u.   146.916 eV
 622( 0) :     5.399471 a.u.   146.927 eV
 623( 0) :     5.402837 a.u.   147.019 eV
 624( 0) :     5.416679 a.u.   147.395 eV
 625( 0) :     5.455536 a.u.   148.453 eV
 626( 0) :     5.455803 a.u.   148.460 eV
 627( 0) :     5.456236 a.u.   148.472 eV
 628( 0) :     5.486282 a.u.   149.289 eV
 629( 0) :     5.486989 a.u.   149.309 eV
 630( 0) :     5.487371 a.u.   149.319 eV
 631( 0) :     5.506788 a.u.   149.847 eV
 632( 0) :     5.520109 a.u.   150.210 eV
 633( 0) :     5.521177 a.u.   150.239 eV
 634( 0) :     5.545955 a.u.   150.913 eV
 635( 0) :     5.546159 a.u.   150.919 eV
 636( 0) :     5.557282 a.u.   151.221 eV
 637( 0) :     5.584002 a.u.   151.948 eV
 638( 0) :     5.587166 a.u.   152.035 eV
 639( 0) :     5.587497 a.u.   152.044 eV
 640( 0) :     5.646399 a.u.   153.646 eV
 641( 0) :     5.646593 a.u.   153.652 eV
 642( 0) :     5.669224 a.u.   154.267 eV
 643( 0) :     5.729638 a.u.   155.911 eV
 644( 0) :     5.730296 a.u.   155.929 eV
 645( 0) :     5.745454 a.u.   156.342 eV
 646( 0) :     5.753299 a.u.   156.555 eV
 647( 0) :     5.758485 a.u.   156.696 eV
 648( 0) :     5.759009 a.u.   156.711 eV
 649( 0) :     5.839147 a.u.   158.891 eV
 650( 0) :     5.839175 a.u.   158.892 eV
 651( 0) :     5.894639 a.u.   160.401 eV
 652( 0) :     5.990076 a.u.   162.998 eV
 653( 0) :     5.990270 a.u.   163.004 eV
 654( 0) :     6.074592 a.u.   165.298 eV
 655( 0) :     6.074960 a.u.   165.308 eV
 656( 0) :     6.085190 a.u.   165.586 eV
 657( 0) :     6.096984 a.u.   165.907 eV
 658( 0) :     6.107037 a.u.   166.181 eV
 659( 0) :     6.107223 a.u.   166.186 eV
 660( 0) :     6.114704 a.u.   166.390 eV
 661( 0) :     6.115120 a.u.   166.401 eV
 662( 0) :     6.121916 a.u.   166.586 eV
 663( 0) :     7.460521 a.u.   203.011 eV
 664( 0) :    29.649993 a.u.   806.817 eV
 665( 0) :    29.717738 a.u.   808.661 eV
 666( 0) :    29.717987 a.u.   808.668 eV
 667( 0) :    29.782765 a.u.   810.430 eV
 668( 0) :    29.793269 a.u.   810.716 eV
 669( 0) :    29.793418 a.u.   810.720 eV
 670( 0) :    29.832339 a.u.   811.779 eV
 671( 0) :    30.009948 a.u.   816.612 eV
 672( 0) :    30.010396 a.u.   816.624 eV
 673( 0) :    30.019244 a.u.   816.865 eV
 674( 0) :    30.035440 a.u.   817.306 eV
 675( 0) :    30.041179 a.u.   817.462 eV
 676( 0) :    30.041371 a.u.   817.467 eV
 677( 0) :    30.108525 a.u.   819.295 eV
 678( 0) :    30.108642 a.u.   819.298 eV
 679( 0) :    30.148937 a.u.   820.394 eV
 680( 0) :    30.240219 a.u.   822.878 eV
 681( 0) :    30.240319 a.u.   822.881 eV
 682( 0) :    30.295779 a.u.   824.390 eV
 683( 0) :    30.295955 a.u.   824.395 eV
 684( 0) :    30.319256 a.u.   825.029 eV
 685( 0) :    30.321282 a.u.   825.084 eV
 686( 0) :    30.329324 a.u.   825.303 eV
 687( 0) :    30.329434 a.u.   825.306 eV
 688( 0) :    30.333858 a.u.   825.426 eV
 689( 0) :    30.338842 a.u.   825.562 eV
 690( 0) :    30.338984 a.u.   825.566 eV
 691( 0) :    36.673570 a.u.   997.939 eV
 692( 0) :    36.681663 a.u.   998.159 eV
 693( 0) :    36.681854 a.u.   998.164 eV
 694( 0) :    36.764107 a.u.  1000.402 eV
 695( 0) :    36.766117 a.u.  1000.457 eV
 696( 0) :    36.774638 a.u.  1000.689 eV
 697( 0) :    36.862967 a.u.  1003.092 eV
 698( 0) :    36.878779 a.u.  1003.523 eV
 699( 0) :    36.878990 a.u.  1003.528 eV
 700( 0) :    36.893361 a.u.  1003.919 eV
 701( 0) :    36.893392 a.u.  1003.920 eV
 702( 0) :    36.893506 a.u.  1003.923 eV
 703( 0) :    36.894583 a.u.  1003.953 eV
 704( 0) :    36.905623 a.u.  1004.253 eV
 705( 0) :    36.905816 a.u.  1004.258 eV
 706( 0) :    36.909044 a.u.  1004.346 eV
 707( 0) :    36.909206 a.u.  1004.351 eV
 708( 0) :    36.939162 a.u.  1005.166 eV
 709( 0) :    36.962104 a.u.  1005.790 eV
 710( 0) :    36.962188 a.u.  1005.792 eV
 711( 0) :    36.978881 a.u.  1006.247 eV
 712( 0) :    36.987485 a.u.  1006.481 eV
 713( 0) :    37.012439 a.u.  1007.160 eV
 714( 0) :    37.012901 a.u.  1007.172 eV
 715( 0) :    37.015739 a.u.  1007.249 eV
 716( 0) :    37.026766 a.u.  1007.550 eV
 717( 0) :    37.032236 a.u.  1007.698 eV
 718( 0) :    37.105366 a.u.  1009.688 eV
 719( 0) :    37.105749 a.u.  1009.699 eV
 720( 0) :    37.111742 a.u.  1009.862 eV
 721( 0) :    37.245643 a.u.  1013.505 eV
 722( 0) :    37.253963 a.u.  1013.732 eV
 723( 0) :    37.269606 a.u.  1014.158 eV
 724( 0) :    37.358257 a.u.  1016.570 eV
 725( 0) :    37.370870 a.u.  1016.913 eV
 726( 0) :    37.371136 a.u.  1016.920 eV
 727( 0) :    41.163166 a.u.  1120.107 eV
-------
TIMINGS
-------

Total SCF time: 0 days 0 hours 1 min 9 sec 

Total time                  ....      69.943 sec
Sum of individual times     ....      66.192 sec  ( 94.6%)

Fock matrix formation       ....      42.935 sec  ( 61.4%)
  Split-RI-J                ....      25.123 sec  ( 58.5% of F)
  XC integration            ....      10.933 sec  ( 25.5% of F)
    Basis function eval.    ....       0.339 sec  (  3.1% of XC)
    Density eval.           ....       0.939 sec  (  8.6% of XC)
    XC-Functional eval.     ....       0.114 sec  (  1.0% of XC)
    XC-Potential eval.      ....       1.154 sec  ( 10.6% of XC)
Diagonalization             ....       8.075 sec  ( 11.5%)
Density matrix formation    ....       0.650 sec  (  0.9%)
Population analysis         ....       4.294 sec  (  6.1%)
Initial guess               ....       0.795 sec  (  1.1%)
Orbital Transformation      ....       0.000 sec  (  0.0%)
Orbital Orthonormalization  ....       0.000 sec  (  0.0%)
DIIS solution               ....       6.021 sec  (  8.6%)
Grid generation             ....       3.421 sec  (  4.9%)

-------------------------   --------------------
FINAL SINGLE POINT ENERGY     -1103.168041777452
-------------------------   --------------------

   --->>> SOC part of D-tensor requested, so NeedSOC=true

                            ***************************************
                            *     ORCA property calculations      *
                            ***************************************

                                    ---------------------
                                    Active property flags
                                    ---------------------
   (+) Dipole Moment
   (+) D-tensor
   (+) Spin-Orbit Integrals are needed


------------------------------------------------------------------------------
                       ORCA ELECTRIC PROPERTIES CALCULATION
------------------------------------------------------------------------------

Dipole Moment Calculation                       ... on
Quadrupole Moment Calculation                   ... off
Polarizability Calculation                      ... off
GBWName                                         ... zfs.gbw
Electron density file                           ... zfs.scfp
The origin for moment calculation is the CENTER OF MASS  = ( 0.000048, -0.000026 -3.167486)

-------------
DIPOLE MOMENT
-------------
                                X             Y             Z
Electronic contribution:      0.00401       0.00836       1.06735
Nuclear contribution   :     -0.00317       0.00211      -0.32886
                        -----------------------------------------
Total Dipole Moment    :      0.00084       0.01048       0.73849
                        -----------------------------------------
Magnitude (a.u.)       :      0.73856
Magnitude (Debye)      :      1.87728



--------------------
Rotational spectrum 
--------------------
 
Rotational constants in cm-1:     0.009246     0.009141     0.009141 
Rotational constants in MHz :   277.183097   274.048600   274.045280 

 Dipole components along the rotational axes: 
x,y,z [a.u.] :     0.738491     0.003895    -0.009503 
x,y,z [Debye]:     1.877094     0.009900    -0.024155 

 


           ************************************************************
           *        Program running with 72 parallel MPI-processes    *
           *              working on a shared directory               *
           ************************************************************
------------------------------------------------------------------------------
                         ORCA SPIN-ORBIT COUPLING CALCULATION
------------------------------------------------------------------------------

GBW file                                    ... zfs.gbw
Input density                               ... zfs.scfp
Output integrals                            ... zfs
Operator type                               ... Mean-field/Effective potential
   One-Electron Terms                       ... 1
   Coulomb Contribution                     ... 2
   Exchange Contribution                    ... 3
   Correlation Contribution                 ... 0
   Maximum number of centers                ... 4
Setting up the integration grid             ... done
Evaluating density on the grid              ... (NumEl=  205.997457) done
Evaluating Coulomb term semi-analytically   ... done
One-Center Exchange (+SOO)                  ... done
Evaluating the spin-orbit operator          ... done
Total time for SOC: 66.769


           ************************************************************
           *        Program running with 72 parallel MPI-processes    *
           *              working on a shared directory               *
           ************************************************************
------------------------------------------------------------------------------
                                ORCA EPR/NMR CALCULATION
------------------------------------------------------------------------------

GBWName                      ... zfs.gbw
Electron density file        ... zfs.scfp
Spin density file            ... zfs.scfr
Spin-orbit integrals         ... zfs
Multiplicity                 ... 3
g-tensor                     ... 0
NMR chemical shifts          ... 0
D-tensor                     ... spin-spin and spin-orbit
D(SS)-algorithm              ... spin-density from UNOs
D(SOC)-algorithm             ... CP (=Coupled-perturbed)
Active orbitals for UNO spin density= 102 .. 103

Starting the spin-spin zero-field-splitting computation (UNO)...
                        ... done with spin-spin calculation

Starting the spin-orbit zero-field-splitting computation (CP)...
Transforming integrals                       ... Max(Pert)=   5.6149e-06
Warning: Perturbation too small - adjusting
Transforming integrals                       ... Max(Pert)=   6.1146e-05
Warning: Perturbation too small - adjusting
Transforming integrals                       ... Max(Pert)=   6.6588e-04
Warning: Perturbation too small - adjusting
Transforming integrals                       ... Max(Pert)=   7.2514e-03
done
    ... no HF exchange - skipping linear equations
ZFS-Tensor - using the prefactors
   -1/(4S**2) for same spin
    1/(2*S*(2*S-1)) for alpha->beta
    1/((S+1)*(2*S+1)) for beta->alpha
                        ... done with spin-orbit calculation

---------------------------
ZERO-FIELD-SPLITTING TENSOR
---------------------------

raw-matrix : 
   0.019887    -0.000073    -0.000003  
  -0.000073     0.019982    -0.000036  
  -0.000003    -0.000036     0.087164  

Tensor is right-handed
diagonalized D matrix : 
   0.019848     0.020021     0.087164  

   0.878914    -0.476981    -0.000045  
   0.476981     0.878914    -0.000531  
   0.000293     0.000445     1.000000  


Direction X=1 Y=0 Z=2
D   =     0.067230  cm**-1
E/D =     0.001292

SPIN-SPIN-PART
                   0          1          2    
      0      -0.021941  -0.000072   0.000003
      1      -0.000072  -0.021864  -0.000028
      2       0.000003  -0.000028   0.043805
Exchange and Coulomb parts of SS (raw)
Coulomb
                   0          1          2    
      0      -0.019070  -0.003904   0.000054
      1      -0.003904  -0.013168   0.000008
      2       0.000054   0.000008   0.032238
Exchange
                   0          1          2    
      0      -0.002871   0.003832  -0.000051
      1       0.003832  -0.008696  -0.000036
      2      -0.000051  -0.000036   0.011567
One-, two-, three- and four-center SS contributions (raw)
One-Center            (AA|AA):
                   0          1          2    
      0      -0.001589   0.000011  -0.000038
      1       0.000011  -0.001424   0.000073
      2      -0.000038   0.000073   0.003013
Two-Center-Coulomb    (AA|BB):
                   0          1          2    
      0      -0.315333   0.012912  -0.000963
      1       0.012912  -0.376773  -0.007474
      2      -0.000963  -0.007474   0.692106
Two-Center-Exchange   (AB|BA):
                   0          1          2    
      0      -0.012693  -0.000383   0.000225
      1      -0.000383  -0.016274   0.000354
      2       0.000225   0.000354   0.028967
Two-Center-hybrid     (AA|AB):
                   0          1          2    
      0       0.000844  -0.000071   0.000149
      1      -0.000071   0.002054  -0.000867
      2       0.000149  -0.000867  -0.002898
Three-Center-Coulomb  (AA|BC):
                   0          1          2    
      0       0.537645  -0.022855   0.002946
      1      -0.022855   0.649206   0.012187
      2       0.002946   0.012187  -1.186852
Three-Center-Exchange (AB|AC):
                   0          1          2    
      0      -0.006687   0.000106  -0.000807
      1       0.000106  -0.001861   0.000749
      2      -0.000807   0.000749   0.008547
Four-Center           (AB|CD):
                   0          1          2    
      0      -0.224128   0.010208  -0.001509
      1       0.010208  -0.276793  -0.005050
      2      -0.001509  -0.005050   0.500921
ALPHA-PART
                   0          1          2    
      0      -0.113511  -0.000001  -0.000000
      1      -0.000001  -0.113522   0.000008
      2      -0.000000   0.000008  -0.108850
BETA-PART
                   0          1          2    
      0      -0.111421  -0.000002   0.000001
      1      -0.000002  -0.111424   0.000021
      2       0.000001   0.000021  -0.104876
ALPHA->BETA-PART
                   0          1          2    
      0       0.230144   0.000002  -0.000007
      1       0.000002   0.230178  -0.000032
      2      -0.000007  -0.000032   0.222868
BETA->ALPHA-PART
                   0          1          2    
      0       0.036616   0.000001   0.000000
      1       0.000001   0.036615  -0.000005
      2       0.000000  -0.000005   0.034218

Individual contributions (in cm**-1)
                                   D         E
SPIN-SPIN                  :   0.06571    0.00008
  Exchange vs Coulomb
  Coulomb                  :   0.04836    0.00488
  Exchange                 :   0.01735   -0.00480
  One through four center contributions:
  1-center                 :   0.00452    0.00004
  2-center-Coulomb         :   1.03817   -0.02757
  2-center-Exchange        :   0.04345   -0.00065
  2-center-Hybrid          :  -0.00435    0.00039
  3-center-Coulomb         :  -1.78030    0.04956
  3-center-Exchange        :   0.01282    0.00123
  4-center                 :   0.75139   -0.02291
SPIN-ORBIT                 :   0.00152    0.00001
SOMO->VMO  (alpha->alpha)  :   0.00467   -0.00000
DOMO->SOMO (beta ->beta )  :   0.00655    0.00000
SOMO->SOMO (alpha->beta )  :  -0.00729    0.00001
DOMO->VMO  (beta ->alpha)  :  -0.00240   -0.00000


Timings for individual modules:

Sum of individual times         ...      266.527 sec (=   4.442 min)
GTO integral calculation        ...       11.637 sec (=   0.194 min)   4.4 %
Spin-Orbit-Coupling Matrices    ...       66.759 sec (=   1.113 min)  25.0 %
SCF iterations                  ...       79.505 sec (=   1.325 min)  29.8 %
EPR/NMR calculation             ...      108.626 sec (=   1.810 min)  40.8 %
                             ****ORCA TERMINATED NORMALLY****
TOTAL RUN TIME: 0 days 0 hours 4 minutes 41 seconds 973 msec
