
*************** JDFTx 1.4.0 (git hash 3b98305) ***************

Start date and time: Thu Mar 26 16:41:39 2020
Executable /export/data/share/wufeng/share/programs/JDFTX-fix20180209/build//jdftx with command-line: -i main.in
Running on hosts (process indices):  krnode10.krhpc (0-1)  krnode11.krhpc (2-3)  krnode12.krhpc (4-5)
Divided in process groups (process indices):  0 (0)  1 (1)  2 (2)  3 (3)  4 (4)  5 (5)
Resource initialization completed at t[s]:      0.09
Run totals: 6 processes, 48 threads, 0 GPUs


Input parsed successfully to the following command list (including defaults):

basis kpoint-dependent
coords-type Lattice
core-overlap-check vector
coulomb-interaction Slab 001
coulomb-truncation-embed 0 0 0.5
davidson-band-ratio 1.1
dump End State Dtot EigStats
dump-name prist.$VAR
elec-cutoff 22.5
elec-eigen-algo Davidson
elec-ex-corr gga-PBE
electronic-minimize  \
	dirUpdateScheme      FletcherReeves \
	linminMethod         DirUpdateRecommended \
	nIterations          100 \
	history              15 \
	knormThreshold       0 \
	energyDiffThreshold  1e-08 \
	nEnergyDiff          2 \
	alphaTstart          1 \
	alphaTmin            1e-10 \
	updateTestStepSize   yes \
	alphaTreduceFactor   0.1 \
	alphaTincreaseFactor 3 \
	nAlphaAdjustMax      3 \
	wolfeEnergy          0.0001 \
	wolfeGradient        0.9 \
	fdTest               no
electronic-scf  \
	nIterations	200 \
	energyDiffThreshold	1e-07 \
	residualThreshold	1e-07 \
	mixFraction	0.5 \
	qMetric	0.8 \
	history	10 \
	nEigSteps	2 \
	eigDiffThreshold	1e-08 \
	mixedVariable	Density \
	qKerker	0.8 \
	qKappa	-1 \
	verbose	no \
	mixFractionMag	1.5
exchange-regularization WignerSeitzTruncated
fftbox 150 150 128
fluid None
fluid-ex-corr lda-TF lda-PZ
fluid-gummel-loop 10 1.000000e-05
fluid-minimize  \
	dirUpdateScheme      PolakRibiere \
	linminMethod         DirUpdateRecommended \
	nIterations          100 \
	history              15 \
	knormThreshold       0 \
	energyDiffThreshold  0 \
	nEnergyDiff          2 \
	alphaTstart          1 \
	alphaTmin            1e-10 \
	updateTestStepSize   yes \
	alphaTreduceFactor   0.1 \
	alphaTincreaseFactor 3 \
	nAlphaAdjustMax      3 \
	wolfeEnergy          0.0001 \
	wolfeGradient        0.9 \
	fdTest               no
fluid-solvent H2O 55.338 ScalarEOS \
	epsBulk 78.4 \
	pMol 0.92466 \
	epsInf 1.77 \
	Pvap 1.06736e-10 \
	sigmaBulk 4.62e-05 \
	Rvdw 2.61727 \
	Res 1.42
forces-output-coords Positions
initial-state prist.$VAR
ion B   0.047620084000000   0.095240321000000   0.500000000000000 0
ion B   0.047619286000000   0.238094334000000   0.500000000000000 0
ion B   0.047621952000000   0.380955229000000   0.500000000000000 0
ion B   0.047618979000000   0.523809543000000   0.500000000000000 0
ion B   0.047621969000000   0.666666935000000   0.500000000000000 0
ion B   0.047619247000000   0.809525089000000   0.500000000000000 0
ion B   0.047620064000000   0.952379914000000   0.500000000000000 0
ion B   0.190476762000000   0.095238447000000   0.500000000000000 0
ion B   0.190474909000000   0.238094334000000   0.500000000000000 0
ion B   0.190476433000000   0.380953036000000   0.500000000000000 0
ion B   0.190475644000000   0.523808622000000   0.500000000000000 0
ion B   0.190475663000000   0.666667195000000   0.500000000000000 0
ion B   0.190476421000000   0.809523552000000   0.500000000000000 0
ion B   0.190474912000000   0.952380716000000   0.500000000000000 0
ion B   0.333332969000000   0.095239750000000   0.500000000000000 0
ion B   0.333332966000000   0.238093360000000   0.500000000000000 0
ion B   0.333333096000000   0.380955229000000   0.500000000000000 0
ion B   0.333332848000000   0.523808622000000   0.500000000000000 0
ion B   0.333333297000000   0.666666765000000   0.500000000000000 0
ion B   0.333332823000000   0.809524354000000   0.500000000000000 0
ion B   0.333333097000000   0.952378038000000   0.500000000000000 0
ion B   0.476192003000000   0.095238935000000   0.500000000000000 0
ion B   0.476189970000000   0.238095061000000   0.500000000000000 0
ion B   0.476192001000000   0.380953239000000   0.500000000000000 0
ion B   0.476190407000000   0.523809543000000   0.500000000000000 0
ion B   0.476191346000000   0.666667195000000   0.500000000000000 0
ion B   0.476191302000000   0.809524354000000   0.500000000000000 0
ion B   0.476190396000000   0.952381023000000   0.500000000000000 0
ion B   0.619046741000000   0.095238935000000   0.500000000000000 0
ion B   0.619046372000000   0.238092855000000   0.500000000000000 0
ion B   0.619046360000000   0.380953646000000   0.500000000000000 0
ion B   0.619046765000000   0.523807950000000   0.500000000000000 0
ion B   0.619044794000000   0.666666935000000   0.500000000000000 0
ion B   0.619046943000000   0.809523552000000   0.500000000000000 0
ion B   0.619044765000000   0.952378038000000   0.500000000000000 0
ion B   0.761906589000000   0.095239750000000   0.500000000000000 0
ion B   0.761904926000000   0.238095061000000   0.500000000000000 0
ion B   0.761907119000000   0.380953646000000   0.500000000000000 0
ion B   0.761904885000000   0.523809993000000   0.500000000000000 0
ion B   0.761906632000000   0.666667077000000   0.500000000000000 0
ion B   0.761905614000000   0.809525089000000   0.500000000000000 0
ion B   0.761905628000000   0.952380716000000   0.500000000000000 0
ion B   0.904761534000000   0.095238447000000   0.500000000000000 0
ion B   0.904760269000000   0.238093360000000   0.500000000000000 0
ion B   0.904761071000000   0.380953239000000   0.500000000000000 0
ion B   0.904761043000000   0.523807950000000   0.500000000000000 0
ion B   0.904760247000000   0.666667077000000   0.500000000000000 0
ion B   0.904761506000000   0.809523239000000   0.500000000000000 0
ion B   0.904759673000000   0.952379914000000   0.500000000000000 0
ion N   0.095284854000000   0.047642353000000   0.500000000000000 0
ion N   0.095241636000000   0.190483138000000   0.500000000000000 0
ion N   0.095273277000000   0.333332295000000   0.500000000000000 0
ion N   0.095252717000000   0.476213908000000   0.500000000000000 0
ion N   0.095252720000000   0.619038671000000   0.500000000000000 0
ion N   0.095273287000000   0.761940868000000   0.500000000000000 0
ion N   0.095241601000000   0.904758336000000   0.500000000000000 0
ion N   0.238080207000000   0.047626458000000   0.500000000000000 0
ion N   0.238080199000000   0.190453613000000   0.500000000000000 0
ion N   0.238059155000000   0.333332295000000   0.500000000000000 0
ion N   0.238092037000000   0.476183917000000   0.500000000000000 0
ion N   0.238047567000000   0.619023731000000   0.500000000000000 0
ion N   0.238092055000000   0.761907985000000   0.500000000000000 0
ion N   0.238059128000000   0.904726694000000   0.500000000000000 0
ion N   0.380984528000000   0.047651339000000   0.500000000000000 0
ion N   0.380956782000000   0.190478320000000   0.500000000000000 0
ion N   0.380984526000000   0.333333014000000   0.500000000000000 0
ion N   0.380961375000000   0.476213908000000   0.500000000000000 0
ion N   0.380976318000000   0.619023731000000   0.500000000000000 0
ion N   0.380976333000000   0.761952458000000   0.500000000000000 0
ion N   0.380961349000000   0.904747247000000   0.500000000000000 0
ion N   0.523810791000000   0.047621472000000   0.500000000000000 0
ion N   0.523798024000000   0.190465877000000   0.500000000000000 0
ion N   0.523798031000000   0.333332047000000   0.500000000000000 0
ion N   0.523810788000000   0.476189169000000   0.500000000000000 0
ion N   0.523786052000000   0.619038671000000   0.500000000000000 0
ion N   0.523816057000000   0.761907985000000   0.500000000000000 0
ion N   0.523786022000000   0.904747247000000   0.500000000000000 0
ion N   0.666667001000000   0.047651339000000   0.500000000000000 0
ion N   0.666667959000000   0.190465877000000   0.500000000000000 0
ion N   0.666666751000000   0.333333289000000   0.500000000000000 0
ion N   0.666667964000000   0.476201927000000   0.500000000000000 0
ion N   0.666667001000000   0.619015521000000   0.500000000000000 0
ion N   0.666667734000000   0.761940868000000   0.500000000000000 0
ion N   0.666667690000000   0.904726694000000   0.500000000000000 0
ion N   0.809546441000000   0.047626458000000   0.500000000000000 0
ion N   0.809521725000000   0.190478320000000   0.500000000000000 0
ion N   0.809534202000000   0.333332047000000   0.500000000000000 0
ion N   0.809534173000000   0.476201927000000   0.500000000000000 0
ion N   0.809521733000000   0.619043259000000   0.500000000000000 0
ion N   0.809546455000000   0.761919818000000   0.500000000000000 0
ion N   0.809516886000000   0.904758336000000   0.500000000000000 0
ion N   0.952357661000000   0.047642353000000   0.500000000000000 0
ion N   0.952373547000000   0.190453613000000   0.500000000000000 0
ion N   0.952348646000000   0.333333014000000   0.500000000000000 0
ion N   0.952378539000000   0.476189169000000   0.500000000000000 0
ion N   0.952348675000000   0.619015521000000   0.500000000000000 0
ion N   0.952373598000000   0.761919818000000   0.500000000000000 0
ion N   0.952357659000000   0.904715113000000   0.500000000000000 0
ion-species SG15/$ID_ONCV_PBE-1.1.upf
ion-species SG15/$ID_ONCV_PBE-1.0.upf
ion-width 0
ionic-minimize  \
	dirUpdateScheme      L-BFGS \
	linminMethod         DirUpdateRecommended \
	nIterations          0 \
	history              15 \
	knormThreshold       0.0001 \
	energyDiffThreshold  1e-06 \
	nEnergyDiff          2 \
	alphaTstart          1 \
	alphaTmin            1e-10 \
	updateTestStepSize   yes \
	alphaTreduceFactor   0.1 \
	alphaTincreaseFactor 3 \
	nAlphaAdjustMax      3 \
	wolfeEnergy          0.0001 \
	wolfeGradient        0.9 \
	fdTest               no
kpoint   0.000000000000   0.000000000000   0.000000000000  1.00000000000000
kpoint-folding 3 3 1 
latt-move-scale 1 1 1
latt-scale 1 1 1 
lattice  \
	  33.234600000000000  -16.617300000000000    0.000000000000000  \
	   0.000000000000000   28.781994465000000    0.000000000000000  \
	   0.000000000000000    0.000000000000000   28.345890044000001 
lattice-minimize  \
	dirUpdateScheme      L-BFGS \
	linminMethod         DirUpdateRecommended \
	nIterations          0 \
	history              15 \
	knormThreshold       0 \
	energyDiffThreshold  1e-06 \
	nEnergyDiff          2 \
	alphaTstart          1 \
	alphaTmin            1e-10 \
	updateTestStepSize   yes \
	alphaTreduceFactor   0.1 \
	alphaTincreaseFactor 3 \
	nAlphaAdjustMax      3 \
	wolfeEnergy          0.0001 \
	wolfeGradient        0.9 \
	fdTest               no
lcao-params -1 1e-06 0.001
pcm-variant GLSSA13
spintype no-spin
subspace-rotation-factor 1 yes
symmetries automatic
symmetry-threshold 0.0001



---------- Setting up symmetries ----------

Found 24 point-group symmetries of the bravais lattice
Found 12 space-group symmetries with basis
Applied RMS atom displacement 3.23827e-06 bohrs to make symmetries exact.

---------- Initializing the Grid ----------
R = 
[    33.2346   -16.6173          0  ]
[          0     28.782          0  ]
[          0          0    28.3459  ]
unit cell volume = 27114.5
G =
[   0.189056   0.109151         -0  ]
[          0   0.218303          0  ]
[          0         -0   0.221661  ]
Minimum fftbox size, Smin = [  144  144  124  ]
Chosen fftbox size, S = [  150  150  128  ]

---------- Exchange Correlation functional ----------
Initalized PBE GGA exchange.
Initalized PBE GGA correlation.

---------- Setting up pseudopotentials ----------
Width of ionic core gaussian charges (only for fluid interactions / plotting) set to 0

Reading pseudopotential file '/export/data/share/wufeng/share/programs/JDFTX-fix20180209/build/pseudopotentials/SG15/B_ONCV_PBE-1.0.upf':
  'B' pseudopotential, 'PBE' functional
  Generated using ONCVPSP code by D. R. Hamann
  Author: Martin Schlipf and Francois Gygi  Date: 150915.
  3 valence electrons, 2 orbitals, 4 projectors, 1534 radial grid points, with lMax = 1
  Transforming local potential to a uniform radial grid of dG=0.02 with 1591 points.
  Transforming nonlocal projectors to a uniform radial grid of dG=0.02 with 458 points.
    2S    l: 0   occupation:  2.0   eigenvalue: -0.347027
    2P    l: 1   occupation:  1.0   eigenvalue: -0.132548
  Transforming atomic orbitals to a uniform radial grid of dG=0.02 with 458 points.
  Core radius for overlap checks: 1.60 bohrs.
  Reading pulay file /export/data/share/wufeng/share/programs/JDFTX-fix20180209/build/pseudopotentials/SG15/B_ONCV_PBE-1.0.pulay ... using dE_dnG = -1.984176e-04 interpolated from Ecut = 20 and 25.

Reading pseudopotential file '/export/data/share/wufeng/share/programs/JDFTX-fix20180209/build/pseudopotentials/SG15/N_ONCV_PBE-1.0.upf':
  'N' pseudopotential, 'PBE' functional
  Generated using ONCVPSP code by D. R. Hamann
  Author: Martin Schlipf and Francois Gygi  Date: 150915.
  5 valence electrons, 2 orbitals, 4 projectors, 1058 radial grid points, with lMax = 1
  Transforming local potential to a uniform radial grid of dG=0.02 with 1591 points.
  Transforming nonlocal projectors to a uniform radial grid of dG=0.02 with 458 points.
    2S    l: 0   occupation:  2.0   eigenvalue: -0.682907
    2P    l: 1   occupation:  3.0   eigenvalue: -0.260548
  Transforming atomic orbitals to a uniform radial grid of dG=0.02 with 458 points.
  Core radius for overlap checks: 1.35 bohrs.
  Reading pulay file /export/data/share/wufeng/share/programs/JDFTX-fix20180209/build/pseudopotentials/SG15/N_ONCV_PBE-1.0.pulay ... using dE_dnG = -1.906178e-02 interpolated from Ecut = 20 and 25.

Folded 1 k-points by 3x3x1 to 9 k-points.

---------- Setting up k-points, bands, fillings ----------
Adding inversion symmetry to k-mesh for non-inversion-symmetric unit cell.
Reduced to 3 k-points under symmetry. 
Computing the number of bands and number of electrons
Calculating initial fillings.
nElectrons: 392.000000   nBands: 196   nStates: 3

----- Setting up reduced wavefunction bases (one per k-point) -----
average nbasis = 138230.111 , ideal nbasis = 138219.467

---------- Setting up coulomb interaction ----------
Setting up double-sized grid for truncated Coulomb potentials:
R = 
[    33.2346   -16.6173          0  ]
[          0     28.782          0  ]
[          0          0    56.6918  ]
unit cell volume = 54229
G =
[   0.189056   0.109151         -0  ]
[          0   0.218303          0  ]
[          0         -0   0.110831  ]
Chosen fftbox size, S = [  150  150  256  ]
Integer grid location selected as the embedding center:
   Grid: [  0  0  64  ]
   Lattice: [  0  0  0.5  ]
   Cartesian: [  0  0  14.1729  ]
Constructing Wigner-Seitz cell: 8 faces (6 quadrilaterals, 2 hexagons)
Range-separation parameter for embedded mesh potentials due to point charges: 0.593827 bohrs.
Initialized slab truncation along lattice direction 001

---------- Setting up 2D ewald sum ----------
Optimum gaussian width for ewald sums = 18.450504 bohr.
Real space sums over 289 unit cells with max indices [  8  8  0  ]
Reciprocal space sums over 81 terms with max indices [  4  4  0  ]

---------- Allocating electronic variables ----------
Initializing wave functions:  linear combination of atomic orbitals
B pseudo-atom occupations:   s ( 2 )  p ( 1 )
N pseudo-atom occupations:   s ( 2 )  p ( 3 )
	FillingsUpdate:  mu: -0.157147040  nElectrons: 392.000000
LCAOMinimize: Iter:   0  Etot: -622.9770660921097942  |grad|_K:  4.336e-03  alpha:  1.000e+00
	FillingsUpdate:  mu: -0.200000000  nElectrons: 392.000000
LCAOMinimize: Iter:   1  Etot: -624.8903035397839858  |grad|_K:  4.759e-04  alpha:  3.787e-01  linmin: -4.406e-01  cgtest:  9.502e-01  t[s]:     56.72
LCAOMinimize: Encountered beta<0, resetting CG.
	FillingsUpdate:  mu: -0.200000000  nElectrons: 392.000000
LCAOMinimize: Iter:   2  Etot: -624.9117554223792013  |grad|_K:  1.866e-05  alpha:  4.092e-01  linmin:  7.394e-02  cgtest: -1.274e-01  t[s]:     74.72
	FillingsUpdate:  mu: -0.200000000  nElectrons: 392.000000
LCAOMinimize: Iter:   3  Etot: -624.9118315829830408  |grad|_K:  2.109e-06  alpha:  9.668e-01  linmin: -1.611e-03  cgtest:  1.693e-01  t[s]:     92.69
LCAOMinimize: Encountered beta<0, resetting CG.
LCAOMinimize: None of the convergence criteria satisfied after 3 iterations.


---- Citations for features of the code used in this run ----

   Software package:
      R. Sundararaman, K. Letchworth-Weaver, K.A. Schwarz, D. Gunceler, Y. Ozhabes and T.A. Arias, 'JDFTx: software for joint density-functional theory', SoftwareX 6, 278 (2017)

   gga-PBE exchange-correlation functional:
      J.P. Perdew, K. Burke and M. Ernzerhof, Phys. Rev. Lett. 77, 3865 (1996)

   Pseudopotentials:
      M Schlipf and F Gygi, Comput. Phys. Commun. 196, 36 (2015)

   Truncated Coulomb potentials:
      R. Sundararaman and T.A. Arias, Phys. Rev. B 87, 165122 (2013)

   Smooth electrostatic potentials by atom-potential subtraction:
      R. Sundararaman and Y. Ping, J. Chem. Phys. 146, 104109 (2017)

This list may not be complete. Please suggest additional citations or
report any other bugs at https://github.com/shankar1729/jdftx/issues

Initialization completed successfully at t[s]:     94.66


-------- Electronic minimization -----------
Will mix electronic density at each iteration.
SCF: Cycle:  0   Etot: -629.540575469675673   dEtot: -4.629e+00   |Residual|: 7.037e-01   |deigs|: 1.516e-02  t[s]:    136.56
SCF: Cycle:  1   Etot: -629.852900688998261   dEtot: -3.123e-01   |Residual|: 4.457e-01   |deigs|: 2.668e-02  t[s]:    165.63
SCF: Cycle:  2   Etot: -629.964596388387690   dEtot: -1.117e-01   |Residual|: 1.086e-01   |deigs|: 2.891e-02  t[s]:    195.14
SCF: Cycle:  3   Etot: -629.982942286633033   dEtot: -1.835e-02   |Residual|: 5.843e-02   |deigs|: 9.828e-03  t[s]:    225.55
SCF: Cycle:  4   Etot: -629.992174838059555   dEtot: -9.233e-03   |Residual|: 3.001e-02   |deigs|: 1.590e-02  t[s]:    254.93
SCF: Cycle:  5   Etot: -629.994513601440531   dEtot: -2.339e-03   |Residual|: 1.989e-02   |deigs|: 7.764e-03  t[s]:    284.52
SCF: Cycle:  6   Etot: -629.994251856222149   dEtot: +2.617e-04   |Residual|: 2.031e-02   |deigs|: 5.355e-03  t[s]:    314.43
SCF: Cycle:  7   Etot: -629.994327556266853   dEtot: -7.570e-05   |Residual|: 3.265e-02   |deigs|: 8.894e-03  t[s]:    344.01
SCF: Cycle:  8   Etot: -629.994949894000001   dEtot: -6.223e-04   |Residual|: 2.279e-02   |deigs|: 3.661e-03  t[s]:    373.40
SCF: Cycle:  9   Etot: -629.995197216645920   dEtot: -2.473e-04   |Residual|: 1.200e-02   |deigs|: 4.759e-03  t[s]:    402.49
SCF: Cycle: 10   Etot: -629.995285492230437   dEtot: -8.828e-05   |Residual|: 1.096e-02   |deigs|: 7.844e-03  t[s]:    432.08
SCF: Cycle: 11   Etot: -629.995138471001042   dEtot: +1.470e-04   |Residual|: 2.115e-02   |deigs|: 5.391e-03  t[s]:    462.03
SCF: Cycle: 12   Etot: -629.995252098992069   dEtot: -1.136e-04   |Residual|: 1.561e-02   |deigs|: 3.304e-03  t[s]:    491.85
SCF: Cycle: 13   Etot: -629.995365291450298   dEtot: -1.132e-04   |Residual|: 3.664e-03   |deigs|: 4.325e-04  t[s]:    521.60
SCF: Cycle: 14   Etot: -629.995362979454740   dEtot: +2.312e-06   |Residual|: 6.081e-03   |deigs|: 7.635e-04  t[s]:    551.61
SCF: Cycle: 15   Etot: -629.995383077624638   dEtot: -2.010e-05   |Residual|: 1.852e-03   |deigs|: 1.407e-04  t[s]:    581.32
SCF: Cycle: 16   Etot: -629.995386701251050   dEtot: -3.624e-06   |Residual|: 4.791e-04   |deigs|: 7.216e-06  t[s]:    600.85
SCF: Cycle: 17   Etot: -629.995387588798394   dEtot: -8.875e-07   |Residual|: 3.802e-04   |deigs|: 1.978e-05  t[s]:    629.86
SCF: Cycle: 18   Etot: -629.995387611412070   dEtot: -2.261e-08   |Residual|: 5.261e-04   |deigs|: 5.470e-06  t[s]:    659.21
SCF: Cycle: 19   Etot: -629.995387752163424   dEtot: -1.408e-07   |Residual|: 1.724e-04   |deigs|: 1.793e-05  t[s]:    688.80
SCF: Cycle: 20   Etot: -629.995387770823299   dEtot: -1.866e-08   |Residual|: 1.161e-04   |deigs|: 3.110e-06  t[s]:    708.25
SCF: Cycle: 21   Etot: -629.995387773217544   dEtot: -2.394e-09   |Residual|: 1.262e-04   |deigs|: 4.715e-07  t[s]:    727.40
SCF: Converged (|Delta E|<1.000000e-07 for 2 iters).


# Ionic positions in lattice coordinates:
ion B   0.047620130734694   0.095240268367347   0.500000000000000 0
ion B   0.047619331234694   0.238094299034014   0.500000000000000 0
ion B   0.047622017568027   0.380955167700680   0.500000000000000 0
ion B   0.047619028401361   0.523809517700680   0.500000000000000 0
ion B   0.047622017568027   0.666666856867347   0.500000000000000 0
ion B   0.047619331234694   0.809525039200680   0.500000000000000 0
ion B   0.047620130734694   0.952379869367347   0.500000000000000 0
ion B   0.190476809734694   0.095238408367347   0.500000000000000 0
ion B   0.190474960901361   0.238094299034014   0.500000000000000 0
ion B   0.190476491401361   0.380952989700680   0.500000000000000 0
ion B   0.190475701401361   0.523808591200680   0.500000000000000 0
ion B   0.190475701401360   0.666667117200680   0.500000000000000 0
ion B   0.190476491401361   0.809523508700680   0.500000000000000 0
ion B   0.190474960901361   0.952380668867347   0.500000000000000 0
ion B   0.333333003234694   0.095239693200680   0.500000000000000 0
ion B   0.333333003234694   0.238093317034014   0.500000000000000 0
ion B   0.333333143234694   0.380955167700680   0.500000000000000 0
ion B   0.333332882901361   0.523808591200680   0.500000000000000 0
ion B   0.333333331068027   0.666666669034014   0.500000000000000 0
ion B   0.333332882901361   0.809524298700680   0.500000000000000 0
ion B   0.333333143234694   0.952377982534014   0.500000000000000 0
ion B   0.476192075401361   0.095238891200680   0.500000000000000 0
ion B   0.476190035068027   0.238095021034014   0.500000000000000 0
ion B   0.476192075401361   0.380953191200680   0.500000000000000 0
ion B   0.476190482401361   0.523809517700680   0.500000000000000 0
ion B   0.476191408901361   0.666667117200680   0.500000000000000 0
ion B   0.476191408901361   0.809524298700680   0.500000000000000 0
ion B   0.476190482401361   0.952380971700680   0.500000000000000 0
ion B   0.619046808901361   0.095238891200680   0.500000000000000 0
ion B   0.619046406068027   0.238092819034014   0.500000000000000 0
ion B   0.619046406068027   0.380953594034014   0.500000000000000 0
ion B   0.619046808901361   0.523807924700680   0.500000000000000 0
ion B   0.619044832401361   0.666666856867347   0.500000000000000 0
ion B   0.619047010401361   0.809523508700680   0.500000000000000 0
ion B   0.619044832401361   0.952377982534014   0.500000000000000 0
ion B   0.761906683068027   0.095239693200680   0.500000000000000 0
ion B   0.761904979068027   0.238095021034014   0.500000000000000 0
ion B   0.761907181068027   0.380953594034014   0.500000000000000 0
ion B   0.761904979068027   0.523809965034014   0.500000000000000 0
ion B   0.761906683068027   0.666666996867347   0.500000000000000 0
ion B   0.761905701068027   0.809525039200680   0.500000000000000 0
ion B   0.761905701068027   0.952380668867347   0.500000000000000 0
ion B   0.904761591734694   0.095238408367347   0.500000000000000 0
ion B   0.904760306901361   0.238093317034014   0.500000000000000 0
ion B   0.904761108901361   0.380953191200680   0.500000000000000 0
ion B   0.904761108901361   0.523807924700680   0.500000000000000 0
ion B   0.904760306901361   0.666666996867347   0.500000000000000 0
ion B   0.904761591734694   0.809523190367347   0.500000000000000 0
ion B   0.904759731734694   0.952379869367347   0.500000000000000 0
ion N   0.095284808734694   0.047642407867347   0.500000000000000 0
ion N   0.095241583901361   0.190483174700680   0.500000000000000 0
ion N   0.095273239401361   0.333332338867347   0.500000000000000 0
ion N   0.095252680234694   0.476213984534014   0.500000000000000 0
ion N   0.095252680234694   0.619038702700680   0.500000000000000 0
ion N   0.095273239401361   0.761940907534014   0.500000000000000 0
ion N   0.095241583901361   0.904758416200680   0.500000000000000 0
ion N   0.238080139901360   0.047626501367347   0.500000000000000 0
ion N   0.238080139901361   0.190453645534014   0.500000000000000 0
ion N   0.238059092568027   0.333332338867347   0.500000000000000 0
ion N   0.238091986068027   0.476183979034014   0.500000000000000 0
ion N   0.238047505068027   0.619023756034014   0.500000000000000 0
ion N   0.238091986068027   0.761908014034014   0.500000000000000 0
ion N   0.238059092568027   0.904726760700680   0.500000000000000 0
ion N   0.380984450734694   0.047651393867347   0.500000000000000 0
ion N   0.380956703734694   0.190478355367347   0.500000000000000 0
ion N   0.380984450734694   0.333333063867347   0.500000000000000 0
ion N   0.380961297401361   0.476213984534014   0.500000000000000 0
ion N   0.380976244068027   0.619023756034014   0.500000000000000 0
ion N   0.380976244068027   0.761952495034014   0.500000000000000 0
ion N   0.380961297401361   0.904747319867347   0.500000000000000 0
ion N   0.523810756401361   0.047621519700680   0.500000000000000 0
ion N   0.523797991734694   0.190465902367347   0.500000000000000 0
ion N   0.523797991734694   0.333332096367347   0.500000000000000 0
ion N   0.523810756401361   0.476189243700680   0.500000000000000 0
ion N   0.523786015568027   0.619038702700680   0.500000000000000 0
ion N   0.523816021068027   0.761908014034014   0.500000000000000 0
ion N   0.523786015568027   0.904747319867347   0.500000000000000 0
ion N   0.666666936234694   0.047651393867347   0.500000000000000 0
ion N   0.666667903734694   0.190465902367347   0.500000000000000 0
ion N   0.666666664401360   0.333333335700680   0.500000000000000 0
ion N   0.666667903734694   0.476202008367347   0.500000000000000 0
ion N   0.666666936234694   0.619015549367347   0.500000000000000 0
ion N   0.666667661234694   0.761940907534014   0.500000000000000 0
ion N   0.666667661234694   0.904726760700680   0.500000000000000 0
ion N   0.809546354568027   0.047626501367347   0.500000000000000 0
ion N   0.809521644734694   0.190478355367347   0.500000000000000 0
ion N   0.809534097734694   0.333332096367347   0.500000000000000 0
ion N   0.809534097734694   0.476202008367347   0.500000000000000 0
ion N   0.809521644734694   0.619043296367347   0.500000000000000 0
ion N   0.809546354568027   0.761919860200680   0.500000000000000 0
ion N   0.809516825401361   0.904758416200680   0.500000000000000 0
ion N   0.952357592234694   0.047642407867347   0.500000000000000 0
ion N   0.952373498734694   0.190453645534014   0.500000000000000 0
ion N   0.952348606234694   0.333333063867347   0.500000000000000 0
ion N   0.952378480401361   0.476189243700680   0.500000000000000 0
ion N   0.952348606234694   0.619015549367347   0.500000000000000 0
ion N   0.952373498734694   0.761919860200680   0.500000000000000 0
ion N   0.952357592234694   0.904715191367347   0.500000000000000 0


# Forces in Lattice coordinates:
force B   0.000000000000000   0.001661885905993   0.000000000000000 0
force B   0.001356249724444  -0.002233412888329  -0.000000000000000 0
force B   0.001157561715022  -0.000181068343741  -0.000000000000000 0
force B  -0.000641561327069   0.000000000000000  -0.000000000000000 0
force B   0.000976493371281   0.000181068343741  -0.000000000000000 0
force B  -0.000877163163885   0.002233412888329   0.000000000000000 0
force B   0.001661885905993  -0.001661885905993   0.000000000000000 0
force B   0.004311848175998   0.000000000000000   0.000000000000000 0
force B  -0.001356249724444  -0.000877163163885  -0.000000000000000 0
force B   0.000000000000000   0.003446859814908  -0.000000000000000 0
force B   0.000299104891588  -0.003450210515678  -0.000000000000000 0
force B  -0.003151105624091   0.003450210515678   0.000000000000000 0
force B   0.003446859814908  -0.003446859814908   0.000000000000000 0
force B  -0.002233412888329   0.000877163163885   0.000000000000000 0
force B  -0.002310765224303   0.003187782282608  -0.000000000000000 0
force B   0.000877017058305  -0.003187782282608  -0.000000000000000 0
force B  -0.001157561715022   0.000976493371281   0.000000000000000 0
force B  -0.000299104891588  -0.003151105624091   0.000000000000000 0
force B   0.000000000000000  -0.000000000000000   0.000000000000000 0
force B  -0.003450210515678   0.003151105624091   0.000000000000000 0
force B  -0.000181068343741  -0.000976493371281   0.000000000000000 0
force B   0.005125998838200  -0.000156963741249   0.000000000000000 0
force B  -0.000435601391641   0.000000000000000  -0.000000000000000 0
force B   0.004969035096950   0.000156963741249   0.000000000000000 0
force B   0.000641561327069  -0.000641561327069   0.000000000000000 0
force B   0.003151105624091   0.000299104891588   0.000000000000000 0
force B   0.003450210515678  -0.000299104891588   0.000000000000000 0
force B   0.000000000000000   0.000641561327069   0.000000000000000 0
force B  -0.005125998838200   0.004969035096950   0.000000000000000 0
force B   0.000000000000000  -0.002991312544451  -0.000000000000000 0
force B  -0.002991312544451   0.002991312544451   0.000000000000000 0
force B  -0.000156963741249  -0.004969035096950  -0.000000000000000 0
force B  -0.000976493371281   0.001157561715022  -0.000000000000000 0
force B  -0.003446859814908   0.000000000000000  -0.000000000000000 0
force B   0.000181068343741  -0.001157561715022   0.000000000000000 0
force B   0.002310765224303   0.000877017058305  -0.000000000000000 0
force B   0.000435601391641  -0.000435601391641   0.000000000000000 0
force B   0.002991312544451  -0.000000000000000   0.000000000000000 0
force B  -0.000000000000000   0.000435601391641  -0.000000000000000 0
force B   0.003187782282608  -0.000877017058305   0.000000000000000 0
force B   0.000877163163885   0.001356249724444  -0.000000000000000 0
force B   0.002233412888329  -0.001356249724444  -0.000000000000000 0
force B  -0.004311848175998   0.004311848175998   0.000000000000000 0
force B  -0.000877017058305  -0.002310765224303  -0.000000000000000 0
force B  -0.004969035096950   0.005125998838200   0.000000000000000 0
force B   0.000156963741249  -0.005125998838200   0.000000000000000 0
force B  -0.003187782282608   0.002310765224303   0.000000000000000 0
force B  -0.000000000000000  -0.004311848175998   0.000000000000000 0
force B  -0.001661885905993  -0.000000000000000  -0.000000000000000 0
force N  -0.008360676799910  -0.000000000000000  -0.000000000000000 0
force N   0.000000000000000  -0.001694368368139  -0.000000000000000 0
force N  -0.007755666095906   0.004079540625442  -0.000000000000000 0
force N  -0.000398958182303  -0.003784933557012  -0.000000000000000 0
force N  -0.004183891739315   0.003784933557012   0.000000000000000 0
force N  -0.003676125470464  -0.004079540625442  -0.000000000000000 0
force N  -0.001694368368139   0.001694368368139   0.000000000000000 0
force N   0.004583210620498  -0.003894772694823   0.000000000000000 0
force N   0.000688437925675   0.003894772694823   0.000000000000000 0
force N   0.007755666095906  -0.003676125470464  -0.000000000000000 0
force N   0.000000000000000   0.001762448710902  -0.000000000000000 0
force N   0.008161050615502   0.000000000000000  -0.000000000000000 0
force N   0.001762448710902  -0.001762448710902   0.000000000000000 0
force N   0.004079540625442   0.003676125470464   0.000000000000000 0
force N  -0.004449562399653  -0.004755132637936   0.000000000000000 0
force N  -0.001110796009546   0.000000000000000   0.000000000000000 0
force N  -0.009204695037589   0.004755132637936  -0.000000000000000 0
force N   0.000398958182303  -0.004183891739315  -0.000000000000000 0
force N  -0.008161050615502   0.008161050615502  -0.000000000000000 0
force N   0.000000000000000  -0.008161050615502  -0.000000000000000 0
force N  -0.003784933557012   0.004183891739315  -0.000000000000000 0
force N   0.000000000000000  -0.000878935801902   0.000000000000000 0
force N   0.001362959788351   0.000966921873738   0.000000000000000 0
force N   0.002329881662089  -0.000966921873738   0.000000000000000 0
force N  -0.000878935801902   0.000878935801902  -0.000000000000000 0
force N   0.004183891739315  -0.000398958182303   0.000000000000000 0
force N  -0.001762448710902  -0.000000000000000   0.000000000000000 0
force N   0.003784933557012   0.000398958182303   0.000000000000000 0
force N   0.004449562399653  -0.009204695037589   0.000000000000000 0
force N  -0.001362959788351   0.002329881662089   0.000000000000000 0
force N   0.000000000000000   0.000000000000000   0.000000000000000 0
force N   0.000966921873738  -0.002329881662089   0.000000000000000 0
force N  -0.004755132637936   0.009204695037589  -0.000000000000000 0
force N   0.003676125470464  -0.007755666095906   0.000000000000000 0
force N  -0.004079540625442   0.007755666095906   0.000000000000000 0
force N  -0.004583210620498   0.000688437925675   0.000000000000000 0
force N   0.001110796009546  -0.001110796009546   0.000000000000000 0
force N  -0.002329881662089   0.001362959788351   0.000000000000000 0
force N  -0.000966921873738  -0.001362959788351  -0.000000000000000 0
force N   0.000000000000000   0.001110796009546   0.000000000000000 0
force N  -0.003894772694823  -0.000688437925675   0.000000000000000 0
force N   0.001694368368139  -0.000000000000000   0.000000000000000 0
force N   0.008360676799910  -0.008360676799910   0.000000000000000 0
force N  -0.000688437925675   0.004583210620498   0.000000000000000 0
force N   0.009204695037589  -0.004449562399653  -0.000000000000000 0
force N   0.000878935801902   0.000000000000000   0.000000000000000 0
force N   0.004755132637936   0.004449562399653   0.000000000000000 0
force N   0.003894772694823  -0.004583210620498   0.000000000000000 0
force N   0.000000000000000   0.008360676799910   0.000000000000000 0

# Energy components:
   Eewald =     -977.9926074820223221
       EH =     -480.9286029643824918
     Eloc =      592.6412917417476365
      Enl =      -31.8302706301417011
   Epulay =        0.0003704738306971
      Exc =     -180.2096120920297153
       KE =      448.3240431797803467
-------------------------------------
     Etot =     -629.9953877732175442

IonicMinimize: Iter:   0  Etot: -629.995387773217544  |grad|_K:  0.000e+00  t[s]:    735.40
IonicMinimize: Converged (|grad|_K<1.000000e-04).

#--- Lowdin population analysis ---
# oxidation-state B +0.454 +0.454 +0.454 +0.454 +0.454 +0.454 +0.454 +0.454 +0.454 +0.454 +0.454 +0.454 +0.454 +0.454 +0.454 +0.454 +0.454 +0.454 +0.455 +0.454 +0.454 +0.454 +0.454 +0.454 +0.454 +0.454 +0.454 +0.454 +0.454 +0.454 +0.454 +0.454 +0.454 +0.454 +0.454 +0.454 +0.454 +0.454 +0.454 +0.454 +0.454 +0.454 +0.454 +0.454 +0.454 +0.454 +0.454 +0.454 +0.454
# oxidation-state N -0.384 -0.384 -0.384 -0.384 -0.384 -0.384 -0.384 -0.385 -0.385 -0.384 -0.385 -0.384 -0.385 -0.384 -0.384 -0.384 -0.384 -0.384 -0.384 -0.384 -0.384 -0.385 -0.384 -0.384 -0.385 -0.384 -0.385 -0.384 -0.384 -0.384 -0.384 -0.384 -0.384 -0.384 -0.384 -0.385 -0.384 -0.384 -0.384 -0.384 -0.385 -0.384 -0.384 -0.385 -0.384 -0.385 -0.384 -0.385 -0.384


Dumping 'prist.wfns' ... done
Dumping 'prist.d_tot' ... done
Dumping 'prist.eigStats' ... 
	eMin: -0.864293 at state 0 ( [ +0.000000 +0.000000 +0.000000 ] spin 0 )
	HOMO: -0.214091 at state 2 ( [ +0.333333 +0.333333 +0.000000 ] spin 0 )
	mu  : unavailable
	LUMO: unavailable
	eMax: -0.214091 at state 2 ( [ +0.333333 +0.333333 +0.000000 ] spin 0 )
	HOMO-LUMO gap: unavailable
	Optical gap  : unavailable
End date and time: Thu Mar 26 16:54:01 2020  (Duration: 0-0:12:21.75)
Done!

PROFILER:              EdensityAndVscloc     0.702625 +/-     0.033114 s,   53 calls,     37.239141 s total
PROFILER:            ExCorrCommunication     0.060617 +/-     0.025173 s,  159 calls,      9.638179 s total
PROFILER:               ExCorrFunctional     0.051456 +/-     0.005920 s,   53 calls,      2.727145 s total
PROFILER:                    ExCorrTotal     0.321083 +/-     0.037933 s,   53 calls,     17.017413 s total
PROFILER:                    inv(matrix)     0.000023 +/-     0.000020 s,   21 calls,      0.000492 s total
PROFILER:     RadialFunctionR::transform     0.444748 +/-     2.096212 s,   24 calls,     10.673949 s total
PROFILER:                    reduceKmesh     0.002624 +/-     0.000000 s,    1 calls,      0.002624 s total
PROFILER:               WavefunctionDrag     3.244074 +/-     0.000000 s,    1 calls,      3.244074 s total

MEMUSAGE:             complexScalarField     0.085831 GB
MEMUSAGE:                    IndexArrays     0.029122 GB
MEMUSAGE:                         matrix     0.000575 GB
MEMUSAGE:                           misc     0.216133 GB
MEMUSAGE:                     RealKernel     0.032689 GB
MEMUSAGE:                    ScalarField     0.622272 GB
MEMUSAGE:               ScalarFieldTilde     0.239052 GB
MEMUSAGE:                          Total     0.924699 GB
