
     Program PWSCF v.6.1 (svn rev. 13369) starts on 10Feb2021 at 14: 9:10 

     This program is part of the open-source Quantum ESPRESSO suite
     for quantum simulation of materials; please cite
         "P. Giannozzi et al., J. Phys.:Condens. Matter 21 395502 (2009);
          URL http://www.quantum-espresso.org", 
     in publications or presentations arising from this work. More details at
     http://www.quantum-espresso.org/quote

     Parallel version (MPI), running on   160 processors
     K-points division:     npool     =       2
     R & G space division:  proc/nbgrp/npool/nimage =      80
     Reading input from relax.in

     Current dimensions of program PWSCF are:
     Max number of different atomic species (ntypx) = 10
     Max number of k-points (npk) = 120000
     Max angular momentum in pseudopotentials (lmaxx) =  3

     Subspace diagonalization in iterative solution of the eigenvalue problem:
     a serial algorithm will be used

 
     Parallelization info
     --------------------
     sticks:   dense  smooth     PW     G-vecs:    dense   smooth      PW
     Min         153     153     38                14461    14461    1806
     Max         154     154     39                14464    14464    1813
     Sum       12259   12259   3067              1156971  1156971  144701
 


     bravais-lattice index     =            0
     lattice parameter (alat)  =      28.4287  a.u.
     unit-cell volume          =   20997.3881 (a.u.)^3
     number of atoms/cell      =           72
     number of atomic types    =            3
     number of electrons       =       288.00 (up: 144.00, down: 144.00)
     number of Kohn-Sham states=          168
     kinetic-energy cutoff     =      55.0000  Ry
     charge density cutoff     =     220.0000  Ry
     convergence threshold     =      1.0E-08
     mixing beta               =       0.7000
     number of iterations used =            8  plain     mixing
     Exchange-correlation      = PBE ( 1  4  3  4 0 0)
     nstep                     =         1000


     celldm(1)=  28.428666  celldm(2)=   0.000000  celldm(3)=   0.000000
     celldm(4)=   0.000000  celldm(5)=   0.000000  celldm(6)=   0.000000

     crystal axes: (cart. coord. in units of alat)
               a(1) = (   1.000000   0.000000   0.000000 )  
               a(2) = (  -0.499999   0.866026   0.000000 )  
               a(3) = (   0.000000   0.000000   1.055273 )  

     reciprocal axes: (cart. coord. in units 2 pi/alat)
               b(1) = (  1.000000  0.577349  0.000000 )  
               b(2) = (  0.000000  1.154700  0.000000 )  
               b(3) = (  0.000000  0.000000  0.947622 )  


     PseudoPot. # 1 for B  read from file:
     ~/pseudo-ONCV-proj/B_ONCV_PBE-1.0.upf
     MD5 check sum: Not computed, couldn't open file
     Pseudo is Norm-conserving, Zval =  3.0
     Generated using ONCVPSP code by D. R. Hamann
     Using radial grid of 1534 points,  4 beta functions with: 
                l(1) =   0
                l(2) =   0
                l(3) =   1
                l(4) =   1

     PseudoPot. # 2 for N  read from file:
     ~/pseudo-ONCV-proj/N_ONCV_PBE-1.0.upf
     MD5 check sum: Not computed, couldn't open file
     Pseudo is Norm-conserving, Zval =  5.0
     Generated using ONCVPSP code by D. R. Hamann
     Using radial grid of 1058 points,  4 beta functions with: 
                l(1) =   0
                l(2) =   0
                l(3) =   1
                l(4) =   1

     PseudoPot. # 3 for C  read from file:
     ~/pseudo-ONCV-proj/C_ONCV_PBE-1.0.upf
     MD5 check sum: Not computed, couldn't open file
     Pseudo is Norm-conserving, Zval =  4.0
     Generated using ONCVPSP code by D. R. Hamann
     Using radial grid of 1248 points,  4 beta functions with: 
                l(1) =   0
                l(2) =   0
                l(3) =   1
                l(4) =   1

     atomic species   valence    mass     pseudopotential
        B              3.00    10.81100     B ( 1.00)
        N              5.00    14.00674     N ( 1.00)
        C              4.00    12.01070     C ( 1.00)

     Starting magnetic structure 
     atomic species   magnetization
        B            1.000
        N            0.000
        C            0.000

      2 Sym. Ops. (no inversion) found


                                    s                        frac. trans.

      isym =  1     identity                                     

 cryst.   s( 1) = (     1          0          0      )
                  (     0          1          0      )
                  (     0          0          1      )

 cart.    s( 1) = (  1.0000000 -0.0000000  0.0000000 )
                  (  0.0000000  1.0000000  0.0000000 )
                  (  0.0000000  0.0000000  1.0000000 )


      isym =  2     inv. 180 deg rotation - cart. axis [0,0,1]   

 cryst.   s( 2) = (     1          0          0      )
                  (     0          1          0      )
                  (     0          0         -1      )

 cart.    s( 2) = (  1.0000000 -0.0000000  0.0000000 )
                  (  0.0000000  1.0000000  0.0000000 )
                  (  0.0000000  0.0000000 -1.0000000 )


   Cartesian axes

     site n.     atom                  positions (alat units)
         1           B   tau(   1) = (  -0.0000004   0.0962250   0.5276366  )
         2           B   tau(   2) = (  -0.0833337   0.2405630   0.5276366  )
         3           B   tau(   3) = (  -0.1666666   0.3849001   0.5276366  )
         4           B   tau(   4) = (  -0.2499999   0.5292380   0.5276366  )
         5           B   tau(   5) = (  -0.3333332   0.6735760   0.5276366  )
         6           B   tau(   6) = (  -0.4166660   0.8179130   0.5276366  )
         7           B   tau(   7) = (   0.1666666   0.0962250   0.5276366  )
         8           B   tau(   8) = (   0.0833333   0.2405630   0.5276366  )
         9           B   tau(   9) = (   0.0000005   0.3849001   0.5276366  )
        10           B   tau(  10) = (  -0.0833329   0.5292380   0.5276366  )
        11           B   tau(  11) = (  -0.1666662   0.6735760   0.5276366  )
        12           B   tau(  12) = (  -0.2499990   0.8179130   0.5276366  )
        13           B   tau(  13) = (   0.3333326   0.0962250   0.5276366  )
        14           B   tau(  14) = (   0.2499993   0.2405630   0.5276366  )
        15           B   tau(  15) = (   0.1666664   0.3849001   0.5276366  )
        16           B   tau(  16) = (   0.0833331   0.5292380   0.5276366  )
        17           B   tau(  17) = (  -0.0000002   0.6735760   0.5276366  )
        18           B   tau(  18) = (  -0.0833330   0.8179130   0.5276366  )
        19           B   tau(  19) = (   0.4999996   0.0962250   0.5276366  )
        20           B   tau(  20) = (   0.4166663   0.2405630   0.5276366  )
        21           B   tau(  21) = (   0.3333334   0.3849001   0.5276366  )
        22           B   tau(  22) = (   0.1666667   0.6735760   0.5276366  )
        23           B   tau(  23) = (   0.0833339   0.8179130   0.5276366  )
        24           B   tau(  24) = (   0.6666666   0.0962250   0.5276366  )
        25           B   tau(  25) = (   0.5833332   0.2405630   0.5276366  )
        26           B   tau(  26) = (   0.5000004   0.3849001   0.5276366  )
        27           B   tau(  27) = (   0.4166671   0.5292380   0.5276366  )
        28           B   tau(  28) = (   0.3333337   0.6735760   0.5276366  )
        29           B   tau(  29) = (   0.2500009   0.8179130   0.5276366  )
        30           B   tau(  30) = (   0.8333327   0.0962250   0.5276366  )
        31           B   tau(  31) = (   0.7499993   0.2405630   0.5276366  )
        32           B   tau(  32) = (   0.6666665   0.3849001   0.5276366  )
        33           B   tau(  33) = (   0.5833332   0.5292380   0.5276366  )
        34           B   tau(  34) = (   0.4999998   0.6735760   0.5276366  )
        35           B   tau(  35) = (   0.4166670   0.8179130   0.5276366  )
        36           N   tau(  36) = (   0.0833336   0.0481121   0.5276366  )
        37           N   tau(  37) = (   0.0000002   0.1924500   0.5276366  )
        38           N   tau(  38) = (  -0.0833326   0.3367871   0.5276366  )
        39           N   tau(  39) = (  -0.1666659   0.4811251   0.5276366  )
        40           N   tau(  40) = (  -0.2499993   0.6254630   0.5276366  )
        41           N   tau(  41) = (  -0.3333321   0.7698001   0.5276366  )
        42           N   tau(  42) = (   0.2500005   0.0481121   0.5276366  )
        43           N   tau(  43) = (   0.1666672   0.1924500   0.5276366  )
        44           N   tau(  44) = (   0.0833344   0.3367871   0.5276366  )
        45           N   tau(  45) = (   0.0000011   0.4811251   0.5276366  )
        46           N   tau(  46) = (  -0.0833323   0.6254630   0.5276366  )
        47           N   tau(  47) = (  -0.1666651   0.7698001   0.5276366  )
        48           N   tau(  48) = (   0.4166666   0.0481121   0.5276366  )
        49           N   tau(  49) = (   0.3333332   0.1924500   0.5276366  )
        50           N   tau(  50) = (   0.2500004   0.3367871   0.5276366  )
        51           N   tau(  51) = (   0.0833338   0.6254630   0.5276366  )
        52           N   tau(  52) = (   0.0000009   0.7698001   0.5276366  )
        53           N   tau(  53) = (   0.5833335   0.0481121   0.5276366  )
        54           N   tau(  54) = (   0.5000002   0.1924500   0.5276366  )
        55           N   tau(  55) = (   0.4166673   0.3367871   0.5276366  )
        56           N   tau(  56) = (   0.3333340   0.4811251   0.5276366  )
        57           N   tau(  57) = (   0.2500007   0.6254630   0.5276366  )
        58           N   tau(  58) = (   0.1666678   0.7698001   0.5276366  )
        59           N   tau(  59) = (   0.7500006   0.0481121   0.5276366  )
        60           N   tau(  60) = (   0.6666673   0.1924500   0.5276366  )
        61           N   tau(  61) = (   0.5833344   0.3367871   0.5276366  )
        62           N   tau(  62) = (   0.5000011   0.4811251   0.5276366  )
        63           N   tau(  63) = (   0.4166678   0.6254630   0.5276366  )
        64           N   tau(  64) = (   0.3333349   0.7698001   0.5276366  )
        65           N   tau(  65) = (   0.9166666   0.0481121   0.5276366  )
        66           N   tau(  66) = (   0.8333333   0.1924500   0.5276366  )
        67           N   tau(  67) = (   0.7500004   0.3367871   0.5276366  )
        68           N   tau(  68) = (   0.6666671   0.4811251   0.5276366  )
        69           N   tau(  69) = (   0.5833338   0.6254630   0.5276366  )
        70           N   tau(  70) = (   0.5000009   0.7698001   0.5276366  )
        71           C   tau(  71) = (   0.2500001   0.5292380   0.5276366  )
        72           C   tau(  72) = (   0.1666671   0.4811251   0.5276366  )

   Crystallographic axes

     site n.     atom                  positions (cryst. coord.)
         1           B   tau(   1) = (  0.0555550  0.1111110  0.5000000  )
         2           B   tau(   2) = (  0.0555550  0.2777780  0.5000000  )
         3           B   tau(   3) = (  0.0555550  0.4444440  0.5000000  )
         4           B   tau(   4) = (  0.0555550  0.6111110  0.5000000  )
         5           B   tau(   5) = (  0.0555550  0.7777780  0.5000000  )
         6           B   tau(   6) = (  0.0555550  0.9444440  0.5000000  )
         7           B   tau(   7) = (  0.2222220  0.1111110  0.5000000  )
         8           B   tau(   8) = (  0.2222220  0.2777780  0.5000000  )
         9           B   tau(   9) = (  0.2222220  0.4444440  0.5000000  )
        10           B   tau(  10) = (  0.2222220  0.6111110  0.5000000  )
        11           B   tau(  11) = (  0.2222220  0.7777780  0.5000000  )
        12           B   tau(  12) = (  0.2222220  0.9444440  0.5000000  )
        13           B   tau(  13) = (  0.3888880  0.1111110  0.5000000  )
        14           B   tau(  14) = (  0.3888880  0.2777780  0.5000000  )
        15           B   tau(  15) = (  0.3888880  0.4444440  0.5000000  )
        16           B   tau(  16) = (  0.3888880  0.6111110  0.5000000  )
        17           B   tau(  17) = (  0.3888880  0.7777780  0.5000000  )
        18           B   tau(  18) = (  0.3888880  0.9444440  0.5000000  )
        19           B   tau(  19) = (  0.5555550  0.1111110  0.5000000  )
        20           B   tau(  20) = (  0.5555550  0.2777780  0.5000000  )
        21           B   tau(  21) = (  0.5555550  0.4444440  0.5000000  )
        22           B   tau(  22) = (  0.5555550  0.7777780  0.5000000  )
        23           B   tau(  23) = (  0.5555550  0.9444440  0.5000000  )
        24           B   tau(  24) = (  0.7222220  0.1111110  0.5000000  )
        25           B   tau(  25) = (  0.7222219  0.2777780  0.5000000  )
        26           B   tau(  26) = (  0.7222220  0.4444440  0.5000000  )
        27           B   tau(  27) = (  0.7222220  0.6111110  0.5000000  )
        28           B   tau(  28) = (  0.7222220  0.7777780  0.5000000  )
        29           B   tau(  29) = (  0.7222220  0.9444440  0.5000000  )
        30           B   tau(  30) = (  0.8888880  0.1111110  0.5000000  )
        31           B   tau(  31) = (  0.8888880  0.2777780  0.5000000  )
        32           B   tau(  32) = (  0.8888880  0.4444440  0.5000000  )
        33           B   tau(  33) = (  0.8888880  0.6111110  0.5000000  )
        34           B   tau(  34) = (  0.8888880  0.7777780  0.5000000  )
        35           B   tau(  35) = (  0.8888880  0.9444440  0.5000000  )
        36           N   tau(  36) = (  0.1111110  0.0555550  0.5000000  )
        37           N   tau(  37) = (  0.1111110  0.2222220  0.5000000  )
        38           N   tau(  38) = (  0.1111110  0.3888880  0.5000000  )
        39           N   tau(  39) = (  0.1111110  0.5555550  0.5000000  )
        40           N   tau(  40) = (  0.1111110  0.7222219  0.5000000  )
        41           N   tau(  41) = (  0.1111110  0.8888880  0.5000000  )
        42           N   tau(  42) = (  0.2777780  0.0555550  0.5000000  )
        43           N   tau(  43) = (  0.2777780  0.2222220  0.5000000  )
        44           N   tau(  44) = (  0.2777780  0.3888880  0.5000000  )
        45           N   tau(  45) = (  0.2777780  0.5555550  0.5000000  )
        46           N   tau(  46) = (  0.2777780  0.7222219  0.5000000  )
        47           N   tau(  47) = (  0.2777780  0.8888880  0.5000000  )
        48           N   tau(  48) = (  0.4444440  0.0555550  0.5000000  )
        49           N   tau(  49) = (  0.4444440  0.2222220  0.5000000  )
        50           N   tau(  50) = (  0.4444440  0.3888880  0.5000000  )
        51           N   tau(  51) = (  0.4444440  0.7222219  0.5000000  )
        52           N   tau(  52) = (  0.4444440  0.8888880  0.5000000  )
        53           N   tau(  53) = (  0.6111110  0.0555550  0.5000000  )
        54           N   tau(  54) = (  0.6111110  0.2222220  0.5000000  )
        55           N   tau(  55) = (  0.6111109  0.3888880  0.5000000  )
        56           N   tau(  56) = (  0.6111110  0.5555550  0.5000000  )
        57           N   tau(  57) = (  0.6111109  0.7222219  0.5000000  )
        58           N   tau(  58) = (  0.6111110  0.8888880  0.5000000  )
        59           N   tau(  59) = (  0.7777780  0.0555550  0.5000000  )
        60           N   tau(  60) = (  0.7777781  0.2222220  0.5000000  )
        61           N   tau(  61) = (  0.7777780  0.3888880  0.5000000  )
        62           N   tau(  62) = (  0.7777780  0.5555550  0.5000000  )
        63           N   tau(  63) = (  0.7777780  0.7222219  0.5000000  )
        64           N   tau(  64) = (  0.7777780  0.8888880  0.5000000  )
        65           N   tau(  65) = (  0.9444440  0.0555550  0.5000000  )
        66           N   tau(  66) = (  0.9444440  0.2222220  0.5000000  )
        67           N   tau(  67) = (  0.9444440  0.3888880  0.5000000  )
        68           N   tau(  68) = (  0.9444440  0.5555550  0.5000000  )
        69           N   tau(  69) = (  0.9444440  0.7222219  0.5000000  )
        70           N   tau(  70) = (  0.9444440  0.8888880  0.5000000  )
        71           C   tau(  71) = (  0.5555550  0.6111110  0.5000000  )
        72           C   tau(  72) = (  0.4444440  0.5555550  0.5000000  )

     number of k points=     1
                       cart. coord. in units 2pi/alat
        k(    1) = (   0.0000000   0.0000000   0.0000000), wk =   1.0000000

                       cryst. coord.
        k(    1) = (   0.0000000   0.0000000   0.0000000), wk =   1.0000000

     Dense  grid:  1156971 G-vectors     FFT dimensions: ( 135, 135, 144)

     Occupations read from input 

      Spin-up

        1.0000   1.0000   1.0000   1.0000   1.0000   1.0000   1.0000   1.0000
        1.0000   1.0000   1.0000   1.0000   1.0000   1.0000   1.0000   1.0000
        1.0000   1.0000   1.0000   1.0000   1.0000   1.0000   1.0000   1.0000
        1.0000   1.0000   1.0000   1.0000   1.0000   1.0000   1.0000   1.0000
        1.0000   1.0000   1.0000   1.0000   1.0000   1.0000   1.0000   1.0000
        1.0000   1.0000   1.0000   1.0000   1.0000   1.0000   1.0000   1.0000
        1.0000   1.0000   1.0000   1.0000   1.0000   1.0000   1.0000   1.0000
        1.0000   1.0000   1.0000   1.0000   1.0000   1.0000   1.0000   1.0000
        1.0000   1.0000   1.0000   1.0000   1.0000   1.0000   1.0000   1.0000
        1.0000   1.0000   1.0000   1.0000   1.0000   1.0000   1.0000   1.0000
        1.0000   1.0000   1.0000   1.0000   1.0000   1.0000   1.0000   1.0000
        1.0000   1.0000   1.0000   1.0000   1.0000   1.0000   1.0000   1.0000
        1.0000   1.0000   1.0000   1.0000   1.0000   1.0000   1.0000   1.0000
        1.0000   1.0000   1.0000   1.0000   1.0000   1.0000   1.0000   1.0000
        1.0000   1.0000   1.0000   1.0000   1.0000   1.0000   1.0000   1.0000
        1.0000   1.0000   1.0000   1.0000   1.0000   1.0000   1.0000   1.0000
        1.0000   1.0000   1.0000   1.0000   1.0000   1.0000   1.0000   1.0000
        1.0000   1.0000   1.0000   1.0000   1.0000   1.0000   1.0000   0.0000
        1.0000   0.0000   0.0000   0.0000   0.0000   0.0000   0.0000   0.0000
        0.0000   0.0000   0.0000   0.0000   0.0000   0.0000   0.0000   0.0000
        0.0000   0.0000   0.0000   0.0000   0.0000   0.0000   0.0000   0.0000

      Spin-down

        1.0000   1.0000   1.0000   1.0000   1.0000   1.0000   1.0000   1.0000
        1.0000   1.0000   1.0000   1.0000   1.0000   1.0000   1.0000   1.0000
        1.0000   1.0000   1.0000   1.0000   1.0000   1.0000   1.0000   1.0000
        1.0000   1.0000   1.0000   1.0000   1.0000   1.0000   1.0000   1.0000
        1.0000   1.0000   1.0000   1.0000   1.0000   1.0000   1.0000   1.0000
        1.0000   1.0000   1.0000   1.0000   1.0000   1.0000   1.0000   1.0000
        1.0000   1.0000   1.0000   1.0000   1.0000   1.0000   1.0000   1.0000
        1.0000   1.0000   1.0000   1.0000   1.0000   1.0000   1.0000   1.0000
        1.0000   1.0000   1.0000   1.0000   1.0000   1.0000   1.0000   1.0000
        1.0000   1.0000   1.0000   1.0000   1.0000   1.0000   1.0000   1.0000
        1.0000   1.0000   1.0000   1.0000   1.0000   1.0000   1.0000   1.0000
        1.0000   1.0000   1.0000   1.0000   1.0000   1.0000   1.0000   1.0000
        1.0000   1.0000   1.0000   1.0000   1.0000   1.0000   1.0000   1.0000
        1.0000   1.0000   1.0000   1.0000   1.0000   1.0000   1.0000   1.0000
        1.0000   1.0000   1.0000   1.0000   1.0000   1.0000   1.0000   1.0000
        1.0000   1.0000   1.0000   1.0000   1.0000   1.0000   1.0000   1.0000
        1.0000   1.0000   1.0000   1.0000   1.0000   1.0000   1.0000   1.0000
        1.0000   1.0000   1.0000   1.0000   1.0000   1.0000   1.0000   1.0000
        0.0000   0.0000   0.0000   0.0000   0.0000   0.0000   0.0000   0.0000
        0.0000   0.0000   0.0000   0.0000   0.0000   0.0000   0.0000   0.0000
        0.0000   0.0000   0.0000   0.0000   0.0000   0.0000   0.0000   0.0000

     Estimated max dynamical RAM per process >      68.84MB

     Estimated total allocated dynamical RAM >   11014.86MB
     Generating pointlists ...
     new r_m :   0.0397 (alat units)  1.1284 (a.u.) for type    1
     new r_m :   0.0397 (alat units)  1.1284 (a.u.) for type    2
     new r_m :   0.0397 (alat units)  1.1284 (a.u.) for type    3

     Initial potential from superposition of free atoms
     Check: negative starting charge=(component1):   -0.001387
     Check: negative starting charge=(component2):   -0.001914

     starting charge  287.99093, renormalised to  288.00000

     negative rho (up, down):  1.387E-03 1.914E-03
     Starting wfc are  288 randomized atomic wfcs

     total cpu time spent up to now is        2.9 secs

     per-process dynamical memory:    91.4 Mb

     Self-consistent Calculation

     iteration #  1     ecut=    55.00 Ry     beta=0.70
     Davidson diagonalization with overlap
     ethr =  1.00E-02,  avg # of iterations =  2.5

     negative rho (up, down):  1.478E-04 3.042E-04

     total cpu time spent up to now is        4.3 secs

     total energy              =    -916.49009979 Ry
     Harris-Foulkes estimate   =    -922.41217683 Ry
     estimated scf accuracy    <      16.97942223 Ry

     total magnetization       =    -0.00 Bohr mag/cell
     absolute magnetization    =    19.38 Bohr mag/cell

     iteration #  2     ecut=    55.00 Ry     beta=0.70
     Davidson diagonalization with overlap
     ethr =  5.90E-03,  avg # of iterations =  3.0

     negative rho (up, down):  6.130E-05 1.165E-04

     total cpu time spent up to now is        5.6 secs

     total energy              =    -921.20705138 Ry
     Harris-Foulkes estimate   =    -925.68261328 Ry
     estimated scf accuracy    <      10.31188890 Ry

     total magnetization       =     0.00 Bohr mag/cell
     absolute magnetization    =    14.98 Bohr mag/cell

     iteration #  3     ecut=    55.00 Ry     beta=0.70
     Davidson diagonalization with overlap
     ethr =  3.58E-03,  avg # of iterations =  2.5

     negative rho (up, down):  1.712E-05 3.490E-05

     total cpu time spent up to now is        6.8 secs

     total energy              =    -923.04511823 Ry
     Harris-Foulkes estimate   =    -923.37053223 Ry
     estimated scf accuracy    <       0.97413320 Ry

     total magnetization       =     0.00 Bohr mag/cell
     absolute magnetization    =    10.16 Bohr mag/cell

     iteration #  4     ecut=    55.00 Ry     beta=0.70
     Davidson diagonalization with overlap
     ethr =  3.38E-04,  avg # of iterations = 13.5

     negative rho (up, down):  4.369E-09 1.026E-08

     total cpu time spent up to now is        9.9 secs

     total energy              =    -923.48949057 Ry
     Harris-Foulkes estimate   =    -923.76473017 Ry
     estimated scf accuracy    <       1.23340075 Ry

     total magnetization       =     0.00 Bohr mag/cell
     absolute magnetization    =     7.97 Bohr mag/cell

     iteration #  5     ecut=    55.00 Ry     beta=0.70
     Davidson diagonalization with overlap
     ethr =  3.38E-04,  avg # of iterations =  7.0

     total cpu time spent up to now is       11.6 secs

     total energy              =    -923.63444186 Ry
     Harris-Foulkes estimate   =    -923.64034797 Ry
     estimated scf accuracy    <       0.05887363 Ry

     total magnetization       =     0.00 Bohr mag/cell
     absolute magnetization    =     5.49 Bohr mag/cell

     iteration #  6     ecut=    55.00 Ry     beta=0.70
     Davidson diagonalization with overlap
     ethr =  2.04E-05,  avg # of iterations = 13.0

     total cpu time spent up to now is       14.4 secs

     total energy              =    -923.65978269 Ry
     Harris-Foulkes estimate   =    -923.64738525 Ry
     estimated scf accuracy    <       0.01386576 Ry

     total magnetization       =    -0.00 Bohr mag/cell
     absolute magnetization    =     4.64 Bohr mag/cell

     iteration #  7     ecut=    55.00 Ry     beta=0.70
     Davidson diagonalization with overlap
     ethr =  4.81E-06,  avg # of iterations =  4.5

     total cpu time spent up to now is       16.5 secs

     total energy              =    -923.67262911 Ry
     Harris-Foulkes estimate   =    -923.67019066 Ry
     estimated scf accuracy    <       0.00673779 Ry

     total magnetization       =     0.00 Bohr mag/cell
     absolute magnetization    =     3.14 Bohr mag/cell

     iteration #  8     ecut=    55.00 Ry     beta=0.70
     Davidson diagonalization with overlap
     ethr =  2.34E-06,  avg # of iterations =  3.0

     total cpu time spent up to now is       17.9 secs

     total energy              =    -923.67501435 Ry
     Harris-Foulkes estimate   =    -923.67458937 Ry
     estimated scf accuracy    <       0.00175467 Ry

     total magnetization       =     0.00 Bohr mag/cell
     absolute magnetization    =     2.44 Bohr mag/cell

     iteration #  9     ecut=    55.00 Ry     beta=0.70
     Davidson diagonalization with overlap
     ethr =  6.09E-07,  avg # of iterations =  3.5

     total cpu time spent up to now is       19.4 secs

     total energy              =    -923.67573072 Ry
     Harris-Foulkes estimate   =    -923.67567822 Ry
     estimated scf accuracy    <       0.00041721 Ry

     total magnetization       =     0.00 Bohr mag/cell
     absolute magnetization    =     2.04 Bohr mag/cell

     iteration # 10     ecut=    55.00 Ry     beta=0.70
     Davidson diagonalization with overlap
     ethr =  1.45E-07,  avg # of iterations =  3.5

     total cpu time spent up to now is       20.9 secs

     total energy              =    -923.67593498 Ry
     Harris-Foulkes estimate   =    -923.67595034 Ry
     estimated scf accuracy    <       0.00008326 Ry

     total magnetization       =    -0.00 Bohr mag/cell
     absolute magnetization    =     1.83 Bohr mag/cell

     iteration # 11     ecut=    55.00 Ry     beta=0.70
     Davidson diagonalization with overlap
     ethr =  2.89E-08,  avg # of iterations =  3.0

     total cpu time spent up to now is       22.2 secs

     total energy              =    -923.67597157 Ry
     Harris-Foulkes estimate   =    -923.67597255 Ry
     estimated scf accuracy    <       0.00000433 Ry

     total magnetization       =    -0.00 Bohr mag/cell
     absolute magnetization    =     1.75 Bohr mag/cell

     iteration # 12     ecut=    55.00 Ry     beta=0.70
     Davidson diagonalization with overlap
     ethr =  1.50E-09,  avg # of iterations =  3.5

     total cpu time spent up to now is       23.7 secs

     total energy              =    -923.67597391 Ry
     Harris-Foulkes estimate   =    -923.67597432 Ry
     estimated scf accuracy    <       0.00000172 Ry

     total magnetization       =    -0.00 Bohr mag/cell
     absolute magnetization    =     1.73 Bohr mag/cell

     iteration # 13     ecut=    55.00 Ry     beta=0.70
     Davidson diagonalization with overlap
     ethr =  5.98E-10,  avg # of iterations =  3.0

     total cpu time spent up to now is       24.9 secs

     total energy              =    -923.67597445 Ry
     Harris-Foulkes estimate   =    -923.67597434 Ry
     estimated scf accuracy    <       0.00000011 Ry

     total magnetization       =    -0.00 Bohr mag/cell
     absolute magnetization    =     1.73 Bohr mag/cell

     iteration # 14     ecut=    55.00 Ry     beta=0.70
     Davidson diagonalization with overlap
     ethr =  3.72E-11,  avg # of iterations =  4.0

     total cpu time spent up to now is       26.5 secs

     total energy              =    -923.67597451 Ry
     Harris-Foulkes estimate   =    -923.67597451 Ry
     estimated scf accuracy    <       0.00000004 Ry

     total magnetization       =     0.00 Bohr mag/cell
     absolute magnetization    =     1.73 Bohr mag/cell

     iteration # 15     ecut=    55.00 Ry     beta=0.70
     Davidson diagonalization with overlap
     ethr =  1.39E-11,  avg # of iterations =  3.5
 
     Magnetic moment per site:
     atom:    1    charge:    0.8835    magn:    0.0004    constr:    0.0000
     atom:    2    charge:    0.8839    magn:    0.0018    constr:    0.0000
     atom:    3    charge:    0.8839    magn:    0.0018    constr:    0.0000
     atom:    4    charge:    0.8835    magn:    0.0004    constr:    0.0000
     atom:    5    charge:    0.8836    magn:    0.0012    constr:    0.0000
     atom:    6    charge:    0.8836    magn:    0.0012    constr:    0.0000
     atom:    7    charge:    0.8878    magn:    0.0017    constr:    0.0000
     atom:    8    charge:    0.8846    magn:    0.0020    constr:    0.0000
     atom:    9    charge:    0.8890    magn:    0.0059    constr:    0.0000
     atom:   10    charge:    0.8846    magn:    0.0020    constr:    0.0000
     atom:   11    charge:    0.8878    magn:    0.0017    constr:    0.0000
     atom:   12    charge:    0.8845    magn:    0.0044    constr:    0.0000
     atom:   13    charge:    0.8837    magn:    0.0014    constr:    0.0000
     atom:   14    charge:    0.8853    magn:    0.0055    constr:    0.0000
     atom:   15    charge:    0.9232    magn:    0.0206    constr:    0.0000
     atom:   16    charge:    0.9232    magn:    0.0206    constr:    0.0000
     atom:   17    charge:    0.8853    magn:    0.0055    constr:    0.0000
     atom:   18    charge:    0.8837    magn:    0.0014    constr:    0.0000
     atom:   19    charge:    0.8875    magn:    0.0009    constr:    0.0000
     atom:   20    charge:    0.8831    magn:    0.0003    constr:    0.0000
     atom:   21    charge:    0.8881    magn:    0.0031    constr:    0.0000
     atom:   22    charge:    0.8881    magn:    0.0031    constr:    0.0000
     atom:   23    charge:    0.8831    magn:    0.0003    constr:    0.0000
     atom:   24    charge:    0.8837    magn:    0.0015    constr:    0.0000
     atom:   25    charge:    0.8837    magn:    0.0015    constr:    0.0000
     atom:   26    charge:    0.8841    magn:    0.0024    constr:    0.0000
     atom:   27    charge:    0.8868    magn:    0.0116    constr:    0.0000
     atom:   28    charge:    0.8868    magn:    0.0116    constr:    0.0000
     atom:   29    charge:    0.8841    magn:    0.0024    constr:    0.0000
     atom:   30    charge:    0.8875    magn:    0.0005    constr:    0.0000
     atom:   31    charge:    0.8844    magn:    0.0042    constr:    0.0000
     atom:   32    charge:    0.8875    magn:    0.0005    constr:    0.0000
     atom:   33    charge:    0.8832    magn:    0.0009    constr:    0.0000
     atom:   34    charge:    0.8880    magn:    0.0039    constr:    0.0000
     atom:   35    charge:    0.8832    magn:    0.0009    constr:    0.0000
     atom:   36    charge:    2.8628    magn:   -0.0008    constr:    0.0000
     atom:   37    charge:    2.8707    magn:   -0.0009    constr:    0.0000
     atom:   38    charge:    2.8606    magn:   -0.0171    constr:    0.0000
     atom:   39    charge:    2.8707    magn:   -0.0009    constr:    0.0000
     atom:   40    charge:    2.8628    magn:   -0.0008    constr:    0.0000
     atom:   41    charge:    2.8694    magn:   -0.0111    constr:    0.0000
     atom:   42    charge:    2.8621    magn:   -0.0040    constr:    0.0000
     atom:   43    charge:    2.8612    magn:   -0.0131    constr:    0.0000
     atom:   44    charge:    2.8580    magn:   -0.0227    constr:    0.0000
     atom:   45    charge:    2.8580    magn:   -0.0227    constr:    0.0000
     atom:   46    charge:    2.8613    magn:   -0.0131    constr:    0.0000
     atom:   47    charge:    2.8621    magn:   -0.0040    constr:    0.0000
     atom:   48    charge:    2.8621    magn:   -0.0060    constr:    0.0000
     atom:   49    charge:    2.8705    magn:   -0.0005    constr:    0.0000
     atom:   50    charge:    2.8602    magn:   -0.0029    constr:    0.0000
     atom:   51    charge:    2.8602    magn:   -0.0029    constr:    0.0000
     atom:   52    charge:    2.8706    magn:   -0.0005    constr:    0.0000
     atom:   53    charge:    2.8624    magn:   -0.0031    constr:    0.0000
     atom:   54    charge:    2.8624    magn:   -0.0031    constr:    0.0000
     atom:   55    charge:    2.8599    magn:   -0.0192    constr:    0.0000
     atom:   56    charge:    2.8266    magn:   -0.0379    constr:    0.0000
     atom:   57    charge:    2.8266    magn:   -0.0379    constr:    0.0000
     atom:   58    charge:    2.8599    magn:   -0.0192    constr:    0.0000
     atom:   59    charge:    2.8623    magn:   -0.0041    constr:    0.0000
     atom:   60    charge:    2.8695    magn:   -0.0109    constr:    0.0000
     atom:   61    charge:    2.8623    magn:   -0.0041    constr:    0.0000
     atom:   62    charge:    2.8699    magn:   -0.0011    constr:    0.0000
     atom:   63    charge:    2.8600    magn:   -0.0186    constr:    0.0000
     atom:   64    charge:    2.8699    magn:   -0.0011    constr:    0.0000
     atom:   65    charge:    2.8622    magn:   -0.0048    constr:    0.0000
     atom:   66    charge:    2.8622    magn:   -0.0034    constr:    0.0000
     atom:   67    charge:    2.8622    magn:   -0.0034    constr:    0.0000
     atom:   68    charge:    2.8622    magn:   -0.0048    constr:    0.0000
     atom:   69    charge:    2.8623    magn:   -0.0036    constr:    0.0000
     atom:   70    charge:    2.8623    magn:   -0.0036    constr:    0.0000
     atom:   71    charge:    1.6878    magn:    0.2123    constr:    0.0000
     atom:   72    charge:    1.8116    magn:   -0.1384    constr:    0.0000

     total cpu time spent up to now is       27.9 secs

     End of self-consistent calculation

 ------ SPIN UP ------------


          k = 0.0000 0.0000 0.0000 (144701 PWs)   bands (ev):

   -21.6186 -21.1545 -20.8640 -20.8224 -20.7663 -20.7213 -20.6183 -20.0666
   -19.9399 -19.8150 -19.7983 -19.7578 -19.6782 -19.4940 -19.4673 -19.4032
   -19.3187 -19.2972 -19.1047 -18.6579 -18.4640 -18.4201 -18.3881 -18.3686
   -18.3573 -18.3307 -18.3259 -18.2875 -18.2803 -18.2538 -18.2468 -18.1321
   -18.1155 -17.7650 -17.6239 -15.4730 -13.1533 -12.5585 -12.5396 -12.2338
   -11.9602 -11.8126 -11.7899 -11.7725 -11.7660 -11.7194 -11.7073 -11.6921
   -11.6657 -11.6172 -11.5697 -11.5571 -11.5343 -11.0206 -10.8292 -10.6379
   -10.6279 -10.5750 -10.5094 -10.4253 -10.4133  -9.5165  -9.4235  -9.2487
    -9.2092  -9.2068  -9.1435  -9.1364  -9.1045  -9.0474  -9.0435  -9.0299
    -9.0119  -9.0079  -8.9904  -8.9395  -8.9214  -8.9056  -8.8217  -8.6963
    -8.4158  -8.2437  -8.2216  -8.1702  -8.1202  -8.0380  -8.0139  -7.8384
    -7.8372  -7.7182  -7.7004  -7.6412  -7.6278  -7.5819  -7.5402  -7.4015
    -7.3097  -7.2931  -7.2455  -7.2353  -7.1495  -7.0427  -7.0335  -7.0212
    -7.0177  -6.9365  -6.9011  -6.8618  -6.8470  -6.8357  -6.7982  -6.7203
    -6.5883  -6.3665  -6.2838  -6.2614  -6.1985  -6.1726  -6.0328  -6.0321
    -5.9572  -5.9363  -5.8990  -5.8038  -5.4886  -4.9880  -4.9171  -4.9129
    -4.7910  -4.7753  -4.7566  -4.7465  -4.7196  -4.7159  -4.7154  -4.6706
    -4.6585  -4.6391  -4.6050  -4.5211  -4.4618  -3.9800  -3.6342  -3.1059
     0.0386   1.0102   1.0591   1.0908   1.1620   1.1662   1.3944   1.7348
     1.7728   1.7859   1.7900   1.8078   1.8331   1.8397   1.8890   1.8944
     1.9033   1.9069   1.9288   1.9564   1.9814   1.9871   2.0107   2.0635

     occupation numbers 
     1.0000   1.0000   1.0000   1.0000   1.0000   1.0000   1.0000   1.0000
     1.0000   1.0000   1.0000   1.0000   1.0000   1.0000   1.0000   1.0000
     1.0000   1.0000   1.0000   1.0000   1.0000   1.0000   1.0000   1.0000
     1.0000   1.0000   1.0000   1.0000   1.0000   1.0000   1.0000   1.0000
     1.0000   1.0000   1.0000   1.0000   1.0000   1.0000   1.0000   1.0000
     1.0000   1.0000   1.0000   1.0000   1.0000   1.0000   1.0000   1.0000
     1.0000   1.0000   1.0000   1.0000   1.0000   1.0000   1.0000   1.0000
     1.0000   1.0000   1.0000   1.0000   1.0000   1.0000   1.0000   1.0000
     1.0000   1.0000   1.0000   1.0000   1.0000   1.0000   1.0000   1.0000
     1.0000   1.0000   1.0000   1.0000   1.0000   1.0000   1.0000   1.0000
     1.0000   1.0000   1.0000   1.0000   1.0000   1.0000   1.0000   1.0000
     1.0000   1.0000   1.0000   1.0000   1.0000   1.0000   1.0000   1.0000
     1.0000   1.0000   1.0000   1.0000   1.0000   1.0000   1.0000   1.0000
     1.0000   1.0000   1.0000   1.0000   1.0000   1.0000   1.0000   1.0000
     1.0000   1.0000   1.0000   1.0000   1.0000   1.0000   1.0000   1.0000
     1.0000   1.0000   1.0000   1.0000   1.0000   1.0000   1.0000   1.0000
     1.0000   1.0000   1.0000   1.0000   1.0000   1.0000   1.0000   1.0000
     1.0000   1.0000   1.0000   1.0000   1.0000   1.0000   1.0000   0.0000
     1.0000   0.0000   0.0000   0.0000   0.0000   0.0000   0.0000   0.0000
     0.0000   0.0000   0.0000   0.0000   0.0000   0.0000   0.0000   0.0000
     0.0000   0.0000   0.0000   0.0000   0.0000   0.0000   0.0000   0.0000

 ------ SPIN DOWN ----------


          k = 0.0000 0.0000 0.0000 (144701 PWs)   bands (ev):

   -21.5765 -21.1474 -20.8744 -20.8303 -20.7714 -20.7287 -20.6272 -20.0627
   -19.9585 -19.8315 -19.8086 -19.7604 -19.6870 -19.4967 -19.4795 -19.4278
   -19.3236 -19.3036 -19.1225 -18.6854 -18.4760 -18.4302 -18.3998 -18.3838
   -18.3632 -18.3390 -18.3379 -18.2925 -18.2881 -18.2623 -18.2607 -18.1516
   -18.1402 -17.7840 -17.6389 -15.6200 -13.0832 -12.5555 -12.5326 -12.2134
   -11.9486 -11.8100 -11.7879 -11.7710 -11.7663 -11.7205 -11.7046 -11.6915
   -11.6622 -11.6327 -11.5683 -11.5539 -11.5341 -11.0069 -10.8247 -10.6350
   -10.6226 -10.5766 -10.5067 -10.4386 -10.4111  -9.5011  -9.4137  -9.2531
    -9.2122  -9.2098  -9.1501  -9.1374  -9.1039  -9.0485  -9.0441  -9.0330
    -9.0127  -9.0081  -8.9925  -8.9206  -8.9189  -8.9035  -8.8286  -8.7000
    -8.3392  -8.2530  -8.2299  -8.1730  -8.1268  -8.0347  -8.0182  -7.8418
    -7.8409  -7.7179  -7.6986  -7.6431  -7.6261  -7.5854  -7.5449  -7.4033
    -7.3125  -7.2969  -7.2484  -7.2403  -7.1564  -7.0397  -7.0257  -7.0218
    -6.9652  -6.9407  -6.9219  -6.8694  -6.8679  -6.8453  -6.7961  -6.7407
    -6.6039  -6.3253  -6.3035  -6.3001  -6.1983  -6.1728  -6.0844  -6.0358
    -5.9643  -5.9416  -5.9024  -5.8127  -5.5102  -4.9969  -4.9823  -4.8744
    -4.8081  -4.7908  -4.7815  -4.7572  -4.7571  -4.7399  -4.7314  -4.6805
    -4.6660  -4.6639  -4.6264  -4.5509  -4.5057  -4.1136  -3.6673  -3.4287
     0.7189   1.0665   1.0686   1.1209   1.1928   1.2017   1.5124   1.7710
     1.7993   1.8028   1.8090   1.8378   1.8486   1.8697   1.9077   1.9080
     1.9139   1.9192   1.9386   1.9682   1.9887   1.9975   2.0418   2.0726

     occupation numbers 
     1.0000   1.0000   1.0000   1.0000   1.0000   1.0000   1.0000   1.0000
     1.0000   1.0000   1.0000   1.0000   1.0000   1.0000   1.0000   1.0000
     1.0000   1.0000   1.0000   1.0000   1.0000   1.0000   1.0000   1.0000
     1.0000   1.0000   1.0000   1.0000   1.0000   1.0000   1.0000   1.0000
     1.0000   1.0000   1.0000   1.0000   1.0000   1.0000   1.0000   1.0000
     1.0000   1.0000   1.0000   1.0000   1.0000   1.0000   1.0000   1.0000
     1.0000   1.0000   1.0000   1.0000   1.0000   1.0000   1.0000   1.0000
     1.0000   1.0000   1.0000   1.0000   1.0000   1.0000   1.0000   1.0000
     1.0000   1.0000   1.0000   1.0000   1.0000   1.0000   1.0000   1.0000
     1.0000   1.0000   1.0000   1.0000   1.0000   1.0000   1.0000   1.0000
     1.0000   1.0000   1.0000   1.0000   1.0000   1.0000   1.0000   1.0000
     1.0000   1.0000   1.0000   1.0000   1.0000   1.0000   1.0000   1.0000
     1.0000   1.0000   1.0000   1.0000   1.0000   1.0000   1.0000   1.0000
     1.0000   1.0000   1.0000   1.0000   1.0000   1.0000   1.0000   1.0000
     1.0000   1.0000   1.0000   1.0000   1.0000   1.0000   1.0000   1.0000
     1.0000   1.0000   1.0000   1.0000   1.0000   1.0000   1.0000   1.0000
     1.0000   1.0000   1.0000   1.0000   1.0000   1.0000   1.0000   1.0000
     1.0000   1.0000   1.0000   1.0000   1.0000   1.0000   1.0000   1.0000
     0.0000   0.0000   0.0000   0.0000   0.0000   0.0000   0.0000   0.0000
     0.0000   0.0000   0.0000   0.0000   0.0000   0.0000   0.0000   0.0000
     0.0000   0.0000   0.0000   0.0000   0.0000   0.0000   0.0000   0.0000

     highest occupied, lowest unoccupied level (ev):    -3.4287   -3.1059

!    total energy              =    -923.67597453 Ry
     Harris-Foulkes estimate   =    -923.67597453 Ry
     estimated scf accuracy    <          8.2E-09 Ry

     The total energy is the sum of the following terms:

     one-electron contribution =   -6003.14063417 Ry
     hartree contribution      =    3059.78331668 Ry
     xc contribution           =    -264.83576938 Ry
     ewald contribution        =    2284.51711235 Ry

     total magnetization       =    -0.00 Bohr mag/cell
     absolute magnetization    =     1.73 Bohr mag/cell

     convergence has been achieved in  15 iterations

     Forces acting on atoms (cartesian axes, Ry/au):

     atom    1 type  1   force =     0.00211033    0.00438093    0.00000000
     atom    2 type  1   force =     0.00307659   -0.00102885    0.00000000
     atom    3 type  1   force =     0.00067049    0.00315026    0.00000000
     atom    4 type  1   force =     0.00485822   -0.00038119    0.00000000
     atom    5 type  1   force =     0.00180844   -0.00011858    0.00000000
     atom    6 type  1   force =     0.00082501    0.00160058    0.00000000
     atom    7 type  1   force =     0.00149062    0.00309077    0.00000000
     atom    8 type  1   force =    -0.00229806    0.01036634    0.00000000
     atom    9 type  1   force =     0.00442955    0.00254548    0.00000000
     atom   10 type  1   force =     0.00785237   -0.00720207    0.00000000
     atom   11 type  1   force =     0.00343263   -0.00028831    0.00000000
     atom   12 type  1   force =     0.00305563    0.00175646    0.00000000
     atom   13 type  1   force =    -0.00133626    0.00344212    0.00000000
     atom   14 type  1   force =     0.00270149    0.01429535    0.00000000
     atom   15 type  1   force =    -0.00223728   -0.06569874    0.00000000
     atom   16 type  1   force =    -0.05799819    0.03088415    0.00000000
     atom   17 type  1   force =     0.01375515   -0.00485332    0.00000000
     atom   18 type  1   force =     0.00232404   -0.00289501    0.00000000
     atom   19 type  1   force =    -0.00293589   -0.00170564    0.00000000
     atom   20 type  1   force =    -0.00544371   -0.00784739    0.00000000
     atom   21 type  1   force =    -0.01736150   -0.01845962    0.00000000
     atom   22 type  1   force =    -0.02464999   -0.00584127    0.00000000
     atom   23 type  1   force =    -0.00949577   -0.00081312    0.00000000
     atom   24 type  1   force =    -0.00082712   -0.00025589    0.00000000
     atom   25 type  1   force =    -0.00062235   -0.00062222    0.00000000
     atom   26 type  1   force =     0.00653198    0.00065655    0.00000000
     atom   27 type  1   force =     0.00487120    0.00047785    0.00000000
     atom   28 type  1   force =     0.00286190    0.00394196    0.00000000
     atom   29 type  1   force =     0.00384565    0.00531404    0.00000000
     atom   30 type  1   force =     0.00226967    0.00193288    0.00000000
     atom   31 type  1   force =     0.00300020    0.00170134    0.00000000
     atom   32 type  1   force =     0.00282013    0.00097851    0.00000000
     atom   33 type  1   force =     0.00112082   -0.00025337    0.00000000
     atom   34 type  1   force =     0.00256702    0.00145000    0.00000000
     atom   35 type  1   force =     0.00035537    0.00108000    0.00000000
     atom   36 type  2   force =    -0.00171767   -0.00204375    0.00000000
     atom   37 type  2   force =    -0.00409168   -0.00563564    0.00000000
     atom   38 type  2   force =    -0.00167411   -0.00093370    0.00000000
     atom   39 type  2   force =    -0.00693320   -0.00070768    0.00000000
     atom   40 type  2   force =    -0.00263712   -0.00044756    0.00000000
     atom   41 type  2   force =    -0.00246264   -0.00139304    0.00000000
     atom   42 type  2   force =    -0.00039784   -0.00158693    0.00000000
     atom   43 type  2   force =    -0.00020445   -0.00633326    0.00000000
     atom   44 type  2   force =    -0.00717724   -0.02039272    0.00000000
     atom   45 type  2   force =    -0.02127642    0.00401528    0.00000000
     atom   46 type  2   force =    -0.00559541    0.00300899    0.00000000
     atom   47 type  2   force =    -0.00158692    0.00048289    0.00000000
     atom   48 type  2   force =     0.00271860    0.00158020    0.00000000
     atom   49 type  2   force =     0.00629085   -0.00499174    0.00000000
     atom   50 type  2   force =     0.01648874   -0.03128668    0.00000000
     atom   51 type  2   force =    -0.01887232    0.02995002    0.00000000
     atom   52 type  2   force =    -0.00118699    0.00797259    0.00000000
     atom   53 type  2   force =     0.00261120   -0.00071626    0.00000000
     atom   54 type  2   force =     0.00067673    0.00263250    0.00000000
     atom   55 type  2   force =    -0.00267354    0.01344215    0.00000000
     atom   56 type  2   force =    -0.04699844    0.06336904    0.00000000
     atom   57 type  2   force =     0.03136545   -0.07236802    0.00000000
     atom   58 type  2   force =     0.01027962   -0.00899550    0.00000000
     atom   59 type  2   force =    -0.00133638   -0.00294020    0.00000000
     atom   60 type  2   force =    -0.00109998   -0.00062223    0.00000000
     atom   61 type  2   force =    -0.00322812    0.00035201    0.00000000
     atom   62 type  2   force =    -0.00528838   -0.00298423    0.00000000
     atom   63 type  2   force =    -0.00172074   -0.00097602    0.00000000
     atom   64 type  2   force =    -0.00524745   -0.00305072    0.00000000
     atom   65 type  2   force =    -0.00282661   -0.00243934    0.00000000
     atom   66 type  2   force =    -0.00273202   -0.00075496    0.00000000
     atom   67 type  2   force =    -0.00202819   -0.00195513    0.00000000
     atom   68 type  2   force =    -0.00353365   -0.00121163    0.00000000
     atom   69 type  2   force =    -0.00209089    0.00022160    0.00000000
     atom   70 type  2   force =    -0.00086652   -0.00188920    0.00000000
     atom   71 type  3   force =     0.05726487    0.03305014    0.00000000
     atom   72 type  3   force =     0.07236050    0.04179775    0.00000000
     The non-local contrib.  to forces
     atom    1 type  1   force =    -0.00164672   -0.00414320    0.00000000
     atom    2 type  1   force =    -0.00262526   -0.00158464    0.00000000
     atom    3 type  1   force =    -0.00266833   -0.00150245    0.00000000
     atom    4 type  1   force =    -0.00440067    0.00062784    0.00000000
     atom    5 type  1   force =    -0.00313311    0.00062289    0.00000000
     atom    6 type  1   force =    -0.00101033   -0.00304830    0.00000000
     atom    7 type  1   force =    -0.00019303   -0.00204711    0.00000000
     atom    8 type  1   force =     0.00053190   -0.01239150    0.00000000
     atom    9 type  1   force =    -0.01183094   -0.00683693    0.00000000
     atom   10 type  1   force =    -0.01044626    0.00663541    0.00000000
     atom   11 type  1   force =    -0.00185816    0.00082968    0.00000000
     atom   12 type  1   force =    -0.00216593   -0.00125919    0.00000000
     atom   13 type  1   force =     0.00091826   -0.00175122    0.00000000
     atom   14 type  1   force =     0.00063116   -0.00994779    0.00000000
     atom   15 type  1   force =    -0.00201758   -0.20336578    0.00000000
     atom   16 type  1   force =    -0.17711888    0.09991807    0.00000000
     atom   17 type  1   force =    -0.00827892    0.00548600    0.00000000
     atom   18 type  1   force =    -0.00104640    0.00165281    0.00000000
     atom   19 type  1   force =     0.00119799    0.00067979    0.00000000
     atom   20 type  1   force =     0.00303835    0.00714846    0.00000000
     atom   21 type  1   force =     0.01678881    0.03126223    0.00000000
     atom   22 type  1   force =     0.03548068   -0.00111914    0.00000000
     atom   23 type  1   force =     0.00772788   -0.00096548    0.00000000
     atom   24 type  1   force =     0.00052718    0.00052811    0.00000000
     atom   25 type  1   force =     0.00073261    0.00016557    0.00000000
     atom   26 type  1   force =    -0.00156700    0.00078292    0.00000000
     atom   27 type  1   force =    -0.01728436   -0.00669804    0.00000000
     atom   28 type  1   force =    -0.01443648   -0.01164810    0.00000000
     atom   29 type  1   force =    -0.00009850   -0.00176353    0.00000000
     atom   30 type  1   force =    -0.00048474   -0.00222533    0.00000000
     atom   31 type  1   force =    -0.00222540   -0.00130745    0.00000000
     atom   32 type  1   force =    -0.00215885    0.00067565    0.00000000
     atom   33 type  1   force =    -0.00407632   -0.00110929    0.00000000
     atom   34 type  1   force =    -0.00671011   -0.00389750    0.00000000
     atom   35 type  1   force =    -0.00299012   -0.00299317    0.00000000
     atom   36 type  2   force =    -0.00323294   -0.00771474    0.00000000
     atom   37 type  2   force =    -0.01065045   -0.01525414    0.00000000
     atom   38 type  2   force =    -0.02055390   -0.01184160    0.00000000
     atom   39 type  2   force =    -0.01853476   -0.00158907    0.00000000
     atom   40 type  2   force =    -0.00829568    0.00106485    0.00000000
     atom   41 type  2   force =    -0.00631725   -0.00362847    0.00000000
     atom   42 type  2   force =     0.00063963   -0.00225646    0.00000000
     atom   43 type  2   force =     0.00038303   -0.01691382    0.00000000
     atom   44 type  2   force =    -0.04963981   -0.06605293    0.00000000
     atom   45 type  2   force =    -0.08204318   -0.00992748    0.00000000
     atom   46 type  2   force =    -0.01445750    0.00879978    0.00000000
     atom   47 type  2   force =    -0.00164687    0.00170476    0.00000000
     atom   48 type  2   force =     0.00524349    0.00302688    0.00000000
     atom   49 type  2   force =     0.01958071   -0.00801976    0.00000000
     atom   50 type  2   force =     0.08818403   -0.04855808    0.00000000
     atom   51 type  2   force =     0.00203204    0.10066354    0.00000000
     atom   52 type  2   force =     0.00284195    0.02097242    0.00000000
     atom   53 type  2   force =     0.00521451   -0.00100247    0.00000000
     atom   54 type  2   force =     0.00174060    0.00501679    0.00000000
     atom   55 type  2   force =    -0.00380930    0.02536404    0.00000000
     atom   56 type  2   force =    -0.29220179    0.22775875    0.00000000
     atom   57 type  2   force =     0.05113483   -0.36692684    0.00000000
     atom   58 type  2   force =     0.02004429   -0.01595895    0.00000000
     atom   59 type  2   force =    -0.00246269   -0.00491218    0.00000000
     atom   60 type  2   force =    -0.00497865   -0.00286850    0.00000000
     atom   61 type  2   force =    -0.00549632    0.00035268    0.00000000
     atom   62 type  2   force =    -0.02375755    0.00255090    0.00000000
     atom   63 type  2   force =    -0.02047872   -0.01180745    0.00000000
     atom   64 type  2   force =    -0.00969154   -0.02182379    0.00000000
     atom   65 type  2   force =    -0.00563011   -0.00880424    0.00000000
     atom   66 type  2   force =    -0.00636394   -0.00704536    0.00000000
     atom   67 type  2   force =    -0.00928646   -0.00197478    0.00000000
     atom   68 type  2   force =    -0.01043826   -0.00047044    0.00000000
     atom   69 type  2   force =    -0.00765071   -0.00157659    0.00000000
     atom   70 type  2   force =    -0.00520164   -0.00582611    0.00000000
     atom   71 type  3   force =     0.44357442    0.25609587    0.00000000
     atom   72 type  3   force =     0.41267522    0.23828057    0.00000000
     The ionic contribution  to forces
     atom    1 type  1   force =     0.00748330    0.01991361    0.00000000
     atom    2 type  1   force =     0.01882833    0.02117105   -0.00000000
     atom    3 type  1   force =     0.02787093    0.00564295   -0.00000000
     atom    4 type  1   force =     0.02103081   -0.00355430   -0.00000000
     atom    5 type  1   force =     0.01657421    0.00260142   -0.00000000
     atom    6 type  1   force =     0.01066240    0.01297611   -0.00000000
     atom    7 type  1   force =    -0.00147132    0.01543061    0.00000000
     atom    8 type  1   force =     0.00803444    0.05323161    0.00000000
     atom    9 type  1   force =     0.10012393    0.05779314    0.00000000
     atom   10 type  1   force =     0.05024095   -0.01976720   -0.00000000
     atom   11 type  1   force =     0.01266117   -0.00915135   -0.00000000
     atom   12 type  1   force =     0.00444570    0.00255772    0.00000000
     atom   13 type  1   force =    -0.00584183    0.00172654    0.00000000
     atom   14 type  1   force =    -0.03373921    0.02104905    0.00000000
     atom   15 type  1   force =    -0.13010123    0.57244334   -0.00000000
     atom   16 type  1   force =     0.43068922   -0.39893261    0.00000000
     atom   17 type  1   force =     0.00146709   -0.03992526   -0.00000000
     atom   18 type  1   force =    -0.00139189   -0.00594171   -0.00000000
     atom   19 type  1   force =    -0.00380674   -0.00224619    0.00000000
     atom   20 type  1   force =    -0.00800276   -0.01312596    0.00000000
     atom   21 type  1   force =    -0.03649312   -0.12925699    0.00000000
     atom   22 type  1   force =    -0.13018037    0.03288334   -0.00000000
     atom   23 type  1   force =    -0.01524485   -0.00043576    0.00000000
     atom   24 type  1   force =    -0.00147111    0.00625104    0.00000000
     atom   25 type  1   force =     0.00471815   -0.00456852   -0.00000000
     atom   26 type  1   force =     0.02229042   -0.02501892   -0.00000000
     atom   27 type  1   force =     0.15860452   -0.01977071    0.00000000
     atom   28 type  1   force =     0.06222336    0.14707111    0.00000000
     atom   29 type  1   force =    -0.01050620    0.03179178   -0.00000000
     atom   30 type  1   force =     0.00544737    0.01604168    0.00000000
     atom   31 type  1   force =     0.01045041    0.00591019   -0.00000000
     atom   32 type  1   force =     0.01664709   -0.00332290   -0.00000000
     atom   33 type  1   force =     0.03074266   -0.00350130    0.00000000
     atom   34 type  1   force =     0.03755829    0.02156091   -0.00000000
     atom   35 type  1   force =     0.01237195    0.02835783   -0.00000000
     atom   36 type  2   force =     0.00885072    0.02671145   -0.00000000
     atom   37 type  2   force =     0.02039478    0.04711514    0.00000000
     atom   38 type  2   force =     0.06238298    0.03617750   -0.00000000
     atom   39 type  2   force =     0.05100908   -0.00585446   -0.00000000
     atom   40 type  2   force =     0.02751638   -0.00566772    0.00000000
     atom   41 type  2   force =     0.01720226    0.01008853   -0.00000000
     atom   42 type  2   force =    -0.00260591    0.01045145   -0.00000000
     atom   43 type  2   force =    -0.01766334    0.05289376   -0.00000000
     atom   44 type  2   force =     0.10356438    0.24542130   -0.00000000
     atom   45 type  2   force =     0.26418880   -0.03291419   -0.00000000
     atom   46 type  2   force =     0.03699425   -0.04177243    0.00000000
     atom   47 type  2   force =     0.00772587   -0.00731595    0.00000000
     atom   48 type  2   force =    -0.00641660   -0.00365899    0.00000000
     atom   49 type  2   force =    -0.02547644   -0.00076744    0.00000000
     atom   50 type  2   force =    -0.21701659    0.05515719    0.00000000
     atom   51 type  2   force =    -0.06089225   -0.21545009   -0.00000000
     atom   52 type  2   force =    -0.01338240   -0.02152904    0.00000000
     atom   53 type  2   force =    -0.00996072    0.00285970   -0.00000000
     atom   54 type  2   force =    -0.00254346   -0.01004888    0.00000000
     atom   55 type  2   force =     0.00224084   -0.06629555    0.00000000
     atom   56 type  2   force =     0.71758963   -0.66490273    0.00000000
     atom   57 type  2   force =    -0.21706268    0.95394487    0.00000000
     atom   58 type  2   force =    -0.05643062    0.03532479   -0.00000000
     atom   59 type  2   force =    -0.00261254    0.02574544   -0.00000000
     atom   60 type  2   force =     0.00724359    0.00416489    0.00000000
     atom   61 type  2   force =     0.02096497   -0.01495786   -0.00000000
     atom   62 type  2   force =     0.08357491   -0.03291185   -0.00000000
     atom   63 type  2   force =     0.16670825    0.09624202    0.00000000
     atom   64 type  2   force =     0.01325964    0.08900932    0.00000000
     atom   65 type  2   force =     0.01240520    0.03327764    0.00000000
     atom   66 type  2   force =     0.01770322    0.02159572   -0.00000000
     atom   67 type  2   force =     0.02758027    0.00469076    0.00000000
     atom   68 type  2   force =     0.03498571   -0.00582959   -0.00000000
     atom   69 type  2   force =     0.04638491    0.00939007    0.00000000
     atom   70 type  2   force =     0.03134257    0.03563461   -0.00000000
     atom   71 type  3   force =    -0.92130452   -0.53198855    0.00000000
     atom   72 type  3   force =    -0.92136123   -0.53191617   -0.00000000
     The local contribution  to forces
     atom    1 type  1   force =    -0.00371299   -0.01138256    0.00000000
     atom    2 type  1   force =    -0.01312146   -0.02061310    0.00000000
     atom    3 type  1   force =    -0.02452571   -0.00098227    0.00000000
     atom    4 type  1   force =    -0.01175334    0.00255556    0.00000000
     atom    5 type  1   force =    -0.01159935   -0.00333791    0.00000000
     atom    6 type  1   force =    -0.00880850   -0.00830415    0.00000000
     atom    7 type  1   force =     0.00316850   -0.01028463    0.00000000
     atom    8 type  1   force =    -0.01085126   -0.03049463    0.00000000
     atom    9 type  1   force =    -0.08387904   -0.04840384    0.00000000
     atom   10 type  1   force =    -0.03194263    0.00595223    0.00000000
     atom   11 type  1   force =    -0.00735119    0.00803582    0.00000000
     atom   12 type  1   force =     0.00079632    0.00046840    0.00000000
     atom   13 type  1   force =     0.00360639    0.00347030    0.00000000
     atom   14 type  1   force =     0.03583013    0.00318926    0.00000000
     atom   15 type  1   force =     0.12991405   -0.43477413    0.00000000
     atom   16 type  1   force =    -0.31155949    0.32993510    0.00000000
     atom   17 type  1   force =     0.02057719    0.02960165    0.00000000
     atom   18 type  1   force =     0.00477950    0.00140394    0.00000000
     atom   19 type  1   force =    -0.00031605   -0.00013606    0.00000000
     atom   20 type  1   force =    -0.00046205   -0.00186756    0.00000000
     atom   21 type  1   force =     0.00236383    0.07953093    0.00000000
     atom   22 type  1   force =     0.07007147   -0.03758788    0.00000000
     atom   23 type  1   force =    -0.00196028    0.00059223    0.00000000
     atom   24 type  1   force =     0.00012682   -0.00703505    0.00000000
     atom   25 type  1   force =    -0.00606338    0.00378385    0.00000000
     atom   26 type  1   force =    -0.01417585    0.02488789    0.00000000
     atom   27 type  1   force =    -0.13644233    0.02694357    0.00000000
     atom   28 type  1   force =    -0.04494906   -0.13147165    0.00000000
     atom   29 type  1   force =     0.01444785   -0.02470966    0.00000000
     atom   30 type  1   force =    -0.00268368   -0.01187815    0.00000000
     atom   31 type  1   force =    -0.00521441   -0.00289527    0.00000000
     atom   32 type  1   force =    -0.01165160    0.00363186    0.00000000
     atom   33 type  1   force =    -0.02551853    0.00435217    0.00000000
     atom   34 type  1   force =    -0.02826515   -0.01619943    0.00000000
     atom   35 type  1   force =    -0.00902269   -0.02426296    0.00000000
     atom   36 type  2   force =    -0.00731962   -0.02101827    0.00000000
     atom   37 type  2   force =    -0.01382900   -0.03751395    0.00000000
     atom   38 type  2   force =    -0.04351789   -0.02526598    0.00000000
     atom   39 type  2   force =    -0.03940441    0.00675719    0.00000000
     atom   40 type  2   force =    -0.02181944    0.00415619    0.00000000
     atom   41 type  2   force =    -0.01331648   -0.00783733    0.00000000
     atom   42 type  2   force =     0.00158764   -0.00976563    0.00000000
     atom   43 type  2   force =     0.01710081   -0.04233275    0.00000000
     atom   44 type  2   force =    -0.06110322   -0.19978650    0.00000000
     atom   45 type  2   force =    -0.20344970    0.04689291    0.00000000
     atom   46 type  2   force =    -0.02812494    0.03600425    0.00000000
     atom   47 type  2   force =    -0.00763573    0.00609411    0.00000000
     atom   48 type  2   force =     0.00391477    0.00221966    0.00000000
     atom   49 type  2   force =     0.01220623    0.00379975    0.00000000
     atom   50 type  2   force =     0.14537660   -0.03790423    0.00000000
     atom   51 type  2   force =     0.04001105    0.14479273    0.00000000
     atom   52 type  2   force =     0.00937900    0.00853126    0.00000000
     atom   53 type  2   force =     0.00737313   -0.00257642    0.00000000
     atom   54 type  2   force =     0.00149297    0.00766580    0.00000000
     atom   55 type  2   force =    -0.00108693    0.05436592    0.00000000
     atom   56 type  2   force =    -0.47238061    0.50052938    0.00000000
     atom   57 type  2   force =     0.19728828   -0.65935676    0.00000000
     atom   58 type  2   force =     0.04667888   -0.02836089    0.00000000
     atom   59 type  2   force =     0.00373496   -0.02377993    0.00000000
     atom   60 type  2   force =    -0.00336096   -0.00192101    0.00000000
     atom   61 type  2   force =    -0.01868832    0.01495304    0.00000000
     atom   62 type  2   force =    -0.06509282    0.02735763    0.00000000
     atom   63 type  2   force =    -0.14797877   -0.08540716    0.00000000
     atom   64 type  2   force =    -0.00884838   -0.07023058    0.00000000
     atom   65 type  2   force =    -0.00959503   -0.02689336    0.00000000
     atom   66 type  2   force =    -0.01406346   -0.01530627    0.00000000
     atom   67 type  2   force =    -0.02031315   -0.00466034    0.00000000
     atom   68 type  2   force =    -0.02804939    0.00508786    0.00000000
     atom   69 type  2   force =    -0.04078275   -0.00759409    0.00000000
     atom   70 type  2   force =    -0.02699643   -0.03166086    0.00000000
     atom   71 type  3   force =     0.53501142    0.30899481    0.00000000
     atom   72 type  3   force =     0.58108441    0.33548041    0.00000000
     The core correction contribution to forces
     atom    1 type  1   force =     0.00000000    0.00000000    0.00000000
     atom    2 type  1   force =     0.00000000    0.00000000    0.00000000
     atom    3 type  1   force =     0.00000000    0.00000000    0.00000000
     atom    4 type  1   force =     0.00000000    0.00000000    0.00000000
     atom    5 type  1   force =     0.00000000    0.00000000    0.00000000
     atom    6 type  1   force =     0.00000000    0.00000000    0.00000000
     atom    7 type  1   force =     0.00000000    0.00000000    0.00000000
     atom    8 type  1   force =     0.00000000    0.00000000    0.00000000
     atom    9 type  1   force =     0.00000000    0.00000000    0.00000000
     atom   10 type  1   force =     0.00000000    0.00000000    0.00000000
     atom   11 type  1   force =     0.00000000    0.00000000    0.00000000
     atom   12 type  1   force =     0.00000000    0.00000000    0.00000000
     atom   13 type  1   force =     0.00000000    0.00000000    0.00000000
     atom   14 type  1   force =     0.00000000    0.00000000    0.00000000
     atom   15 type  1   force =     0.00000000    0.00000000    0.00000000
     atom   16 type  1   force =     0.00000000    0.00000000    0.00000000
     atom   17 type  1   force =     0.00000000    0.00000000    0.00000000
     atom   18 type  1   force =     0.00000000    0.00000000    0.00000000
     atom   19 type  1   force =     0.00000000    0.00000000    0.00000000
     atom   20 type  1   force =     0.00000000    0.00000000    0.00000000
     atom   21 type  1   force =     0.00000000    0.00000000    0.00000000
     atom   22 type  1   force =     0.00000000    0.00000000    0.00000000
     atom   23 type  1   force =     0.00000000    0.00000000    0.00000000
     atom   24 type  1   force =     0.00000000    0.00000000    0.00000000
     atom   25 type  1   force =     0.00000000    0.00000000    0.00000000
     atom   26 type  1   force =     0.00000000    0.00000000    0.00000000
     atom   27 type  1   force =     0.00000000    0.00000000    0.00000000
     atom   28 type  1   force =     0.00000000    0.00000000    0.00000000
     atom   29 type  1   force =     0.00000000    0.00000000    0.00000000
     atom   30 type  1   force =     0.00000000    0.00000000    0.00000000
     atom   31 type  1   force =     0.00000000    0.00000000    0.00000000
     atom   32 type  1   force =     0.00000000    0.00000000    0.00000000
     atom   33 type  1   force =     0.00000000    0.00000000    0.00000000
     atom   34 type  1   force =     0.00000000    0.00000000    0.00000000
     atom   35 type  1   force =     0.00000000    0.00000000    0.00000000
     atom   36 type  2   force =     0.00000000    0.00000000    0.00000000
     atom   37 type  2   force =     0.00000000    0.00000000    0.00000000
     atom   38 type  2   force =     0.00000000    0.00000000    0.00000000
     atom   39 type  2   force =     0.00000000    0.00000000    0.00000000
     atom   40 type  2   force =     0.00000000    0.00000000    0.00000000
     atom   41 type  2   force =     0.00000000    0.00000000    0.00000000
     atom   42 type  2   force =     0.00000000    0.00000000    0.00000000
     atom   43 type  2   force =     0.00000000    0.00000000    0.00000000
     atom   44 type  2   force =     0.00000000    0.00000000    0.00000000
     atom   45 type  2   force =     0.00000000    0.00000000    0.00000000
     atom   46 type  2   force =     0.00000000    0.00000000    0.00000000
     atom   47 type  2   force =     0.00000000    0.00000000    0.00000000
     atom   48 type  2   force =     0.00000000    0.00000000    0.00000000
     atom   49 type  2   force =     0.00000000    0.00000000    0.00000000
     atom   50 type  2   force =     0.00000000    0.00000000    0.00000000
     atom   51 type  2   force =     0.00000000    0.00000000    0.00000000
     atom   52 type  2   force =     0.00000000    0.00000000    0.00000000
     atom   53 type  2   force =     0.00000000    0.00000000    0.00000000
     atom   54 type  2   force =     0.00000000    0.00000000    0.00000000
     atom   55 type  2   force =     0.00000000    0.00000000    0.00000000
     atom   56 type  2   force =     0.00000000    0.00000000    0.00000000
     atom   57 type  2   force =     0.00000000    0.00000000    0.00000000
     atom   58 type  2   force =     0.00000000    0.00000000    0.00000000
     atom   59 type  2   force =     0.00000000    0.00000000    0.00000000
     atom   60 type  2   force =     0.00000000    0.00000000    0.00000000
     atom   61 type  2   force =     0.00000000    0.00000000    0.00000000
     atom   62 type  2   force =     0.00000000    0.00000000    0.00000000
     atom   63 type  2   force =     0.00000000    0.00000000    0.00000000
     atom   64 type  2   force =     0.00000000    0.00000000    0.00000000
     atom   65 type  2   force =     0.00000000    0.00000000    0.00000000
     atom   66 type  2   force =     0.00000000    0.00000000    0.00000000
     atom   67 type  2   force =     0.00000000    0.00000000    0.00000000
     atom   68 type  2   force =     0.00000000    0.00000000    0.00000000
     atom   69 type  2   force =     0.00000000    0.00000000    0.00000000
     atom   70 type  2   force =     0.00000000    0.00000000    0.00000000
     atom   71 type  3   force =     0.00000000    0.00000000    0.00000000
     atom   72 type  3   force =     0.00000000    0.00000000    0.00000000
     The Hubbard contrib.    to forces
     atom    1 type  1   force =     0.00000000    0.00000000    0.00000000
     atom    2 type  1   force =     0.00000000    0.00000000    0.00000000
     atom    3 type  1   force =     0.00000000    0.00000000    0.00000000
     atom    4 type  1   force =     0.00000000    0.00000000    0.00000000
     atom    5 type  1   force =     0.00000000    0.00000000    0.00000000
     atom    6 type  1   force =     0.00000000    0.00000000    0.00000000
     atom    7 type  1   force =     0.00000000    0.00000000    0.00000000
     atom    8 type  1   force =     0.00000000    0.00000000    0.00000000
     atom    9 type  1   force =     0.00000000    0.00000000    0.00000000
     atom   10 type  1   force =     0.00000000    0.00000000    0.00000000
     atom   11 type  1   force =     0.00000000    0.00000000    0.00000000
     atom   12 type  1   force =     0.00000000    0.00000000    0.00000000
     atom   13 type  1   force =     0.00000000    0.00000000    0.00000000
     atom   14 type  1   force =     0.00000000    0.00000000    0.00000000
     atom   15 type  1   force =     0.00000000    0.00000000    0.00000000
     atom   16 type  1   force =     0.00000000    0.00000000    0.00000000
     atom   17 type  1   force =     0.00000000    0.00000000    0.00000000
     atom   18 type  1   force =     0.00000000    0.00000000    0.00000000
     atom   19 type  1   force =     0.00000000    0.00000000    0.00000000
     atom   20 type  1   force =     0.00000000    0.00000000    0.00000000
     atom   21 type  1   force =     0.00000000    0.00000000    0.00000000
     atom   22 type  1   force =     0.00000000    0.00000000    0.00000000
     atom   23 type  1   force =     0.00000000    0.00000000    0.00000000
     atom   24 type  1   force =     0.00000000    0.00000000    0.00000000
     atom   25 type  1   force =     0.00000000    0.00000000    0.00000000
     atom   26 type  1   force =     0.00000000    0.00000000    0.00000000
     atom   27 type  1   force =     0.00000000    0.00000000    0.00000000
     atom   28 type  1   force =     0.00000000    0.00000000    0.00000000
     atom   29 type  1   force =     0.00000000    0.00000000    0.00000000
     atom   30 type  1   force =     0.00000000    0.00000000    0.00000000
     atom   31 type  1   force =     0.00000000    0.00000000    0.00000000
     atom   32 type  1   force =     0.00000000    0.00000000    0.00000000
     atom   33 type  1   force =     0.00000000    0.00000000    0.00000000
     atom   34 type  1   force =     0.00000000    0.00000000    0.00000000
     atom   35 type  1   force =     0.00000000    0.00000000    0.00000000
     atom   36 type  2   force =     0.00000000    0.00000000    0.00000000
     atom   37 type  2   force =     0.00000000    0.00000000    0.00000000
     atom   38 type  2   force =     0.00000000    0.00000000    0.00000000
     atom   39 type  2   force =     0.00000000    0.00000000    0.00000000
     atom   40 type  2   force =     0.00000000    0.00000000    0.00000000
     atom   41 type  2   force =     0.00000000    0.00000000    0.00000000
     atom   42 type  2   force =     0.00000000    0.00000000    0.00000000
     atom   43 type  2   force =     0.00000000    0.00000000    0.00000000
     atom   44 type  2   force =     0.00000000    0.00000000    0.00000000
     atom   45 type  2   force =     0.00000000    0.00000000    0.00000000
     atom   46 type  2   force =     0.00000000    0.00000000    0.00000000
     atom   47 type  2   force =     0.00000000    0.00000000    0.00000000
     atom   48 type  2   force =     0.00000000    0.00000000    0.00000000
     atom   49 type  2   force =     0.00000000    0.00000000    0.00000000
     atom   50 type  2   force =     0.00000000    0.00000000    0.00000000
     atom   51 type  2   force =     0.00000000    0.00000000    0.00000000
     atom   52 type  2   force =     0.00000000    0.00000000    0.00000000
     atom   53 type  2   force =     0.00000000    0.00000000    0.00000000
     atom   54 type  2   force =     0.00000000    0.00000000    0.00000000
     atom   55 type  2   force =     0.00000000    0.00000000    0.00000000
     atom   56 type  2   force =     0.00000000    0.00000000    0.00000000
     atom   57 type  2   force =     0.00000000    0.00000000    0.00000000
     atom   58 type  2   force =     0.00000000    0.00000000    0.00000000
     atom   59 type  2   force =     0.00000000    0.00000000    0.00000000
     atom   60 type  2   force =     0.00000000    0.00000000    0.00000000
     atom   61 type  2   force =     0.00000000    0.00000000    0.00000000
     atom   62 type  2   force =     0.00000000    0.00000000    0.00000000
     atom   63 type  2   force =     0.00000000    0.00000000    0.00000000
     atom   64 type  2   force =     0.00000000    0.00000000    0.00000000
     atom   65 type  2   force =     0.00000000    0.00000000    0.00000000
     atom   66 type  2   force =     0.00000000    0.00000000    0.00000000
     atom   67 type  2   force =     0.00000000    0.00000000    0.00000000
     atom   68 type  2   force =     0.00000000    0.00000000    0.00000000
     atom   69 type  2   force =     0.00000000    0.00000000    0.00000000
     atom   70 type  2   force =     0.00000000    0.00000000    0.00000000
     atom   71 type  3   force =     0.00000000    0.00000000    0.00000000
     atom   72 type  3   force =     0.00000000    0.00000000    0.00000000
     The SCF correction term to forces
     atom    1 type  1   force =    -0.00000054    0.00000049    0.00000000
     atom    2 type  1   force =     0.00000770    0.00000525    0.00000000
     atom    3 type  1   force =     0.00000631   -0.00000056    0.00000000
     atom    4 type  1   force =    -0.00000585   -0.00000288    0.00000000
     atom    5 type  1   force =    -0.00002059    0.00000243    0.00000000
     atom    6 type  1   force =    -0.00000584   -0.00001566    0.00000000
     atom    7 type  1   force =    -0.00000080   -0.00000068    0.00000000
     atom    8 type  1   force =    -0.00000041    0.00002827    0.00000000
     atom    9 type  1   force =     0.00002832    0.00000051    0.00000000
     atom   10 type  1   force =     0.00001303   -0.00001511    0.00000000
     atom   11 type  1   force =    -0.00000647    0.00000495    0.00000000
     atom   12 type  1   force =    -0.00000774   -0.00000306    0.00000000
     atom   13 type  1   force =    -0.00000636    0.00000392    0.00000000
     atom   14 type  1   force =    -0.00000787    0.00001224    0.00000000
     atom   15 type  1   force =    -0.00001980    0.00000525    0.00000000
     atom   16 type  1   force =     0.00000368   -0.00002900    0.00000000
     atom   17 type  1   force =     0.00000251   -0.00000830    0.00000000
     atom   18 type  1   force =    -0.00000445   -0.00000264    0.00000000
     atom   19 type  1   force =     0.00000163    0.00000423    0.00000000
     atom   20 type  1   force =    -0.00000453    0.00000509    0.00000000
     atom   21 type  1   force =    -0.00000829    0.00001163    0.00000000
     atom   22 type  1   force =    -0.00000905   -0.00001018    0.00000000
     atom   23 type  1   force =    -0.00000580    0.00000330    0.00000000
     atom   24 type  1   force =     0.00000271    0.00000742    0.00000000
     atom   25 type  1   force =     0.00000299    0.00000429    0.00000000
     atom   26 type  1   force =    -0.00000287    0.00001206    0.00000000
     atom   27 type  1   force =     0.00000608    0.00001044    0.00000000
     atom   28 type  1   force =     0.00003680   -0.00000199    0.00000000
     atom   29 type  1   force =     0.00001522    0.00000286    0.00000000
     atom   30 type  1   force =     0.00000345    0.00000209    0.00000000
     atom   31 type  1   force =     0.00000232    0.00000127    0.00000000
     atom   32 type  1   force =    -0.00000379    0.00000132    0.00000000
     atom   33 type  1   force =    -0.00001428    0.00001247    0.00000000
     atom   34 type  1   force =    -0.00000329   -0.00000656    0.00000000
     atom   35 type  1   force =     0.00000895   -0.00001429    0.00000000
     atom   36 type  2   force =    -0.00000311   -0.00001478    0.00000000
     atom   37 type  2   force =     0.00000571    0.00002472    0.00000000
     atom   38 type  2   force =     0.00002742    0.00000379    0.00000000
     atom   39 type  2   force =     0.00000961   -0.00001393    0.00000000
     atom   40 type  2   force =    -0.00002565    0.00000653    0.00000000
     atom   41 type  2   force =    -0.00001845   -0.00000835    0.00000000
     atom   42 type  2   force =    -0.00000649   -0.00000889    0.00000000
     atom   43 type  2   force =    -0.00001222    0.00002698    0.00000000
     atom   44 type  2   force =     0.00001413    0.00003282    0.00000000
     atom   45 type  2   force =     0.00004038   -0.00002855    0.00000000
     atom   46 type  2   force =     0.00000551   -0.00001519    0.00000000
     atom   47 type  2   force =    -0.00001747    0.00000738    0.00000000
     atom   48 type  2   force =    -0.00001033    0.00000006    0.00000000
     atom   49 type  2   force =    -0.00000692    0.00000311    0.00000000
     atom   50 type  2   force =    -0.00004258    0.00002584    0.00000000
     atom   51 type  2   force =    -0.00001043   -0.00004874    0.00000000
     atom   52 type  2   force =    -0.00001281    0.00000536    0.00000000
     atom   53 type  2   force =    -0.00000300    0.00001034    0.00000000
     atom   54 type  2   force =    -0.00000065    0.00000619    0.00000000
     atom   55 type  2   force =    -0.00000543    0.00001515    0.00000000
     atom   56 type  2   force =     0.00000705   -0.00000896    0.00000000
     atom   57 type  2   force =     0.00001775   -0.00002188    0.00000000
     atom   58 type  2   force =    -0.00000020    0.00000697    0.00000000
     atom   59 type  2   force =     0.00001661    0.00001389    0.00000000
     atom   60 type  2   force =     0.00000876    0.00000980    0.00000000
     atom   61 type  2   force =     0.00000427    0.00001155    0.00000000
     atom   62 type  2   force =    -0.00000020    0.00002650    0.00000000
     atom   63 type  2   force =     0.00004123    0.00000398    0.00000000
     atom   64 type  2   force =     0.00004555    0.00000174    0.00000000
     atom   65 type  2   force =     0.00000605   -0.00001197    0.00000000
     atom   66 type  2   force =     0.00000488    0.00000836    0.00000000
     atom   67 type  2   force =     0.00000387   -0.00000336    0.00000000
     atom   68 type  2   force =    -0.00001898    0.00000795    0.00000000
     atom   69 type  2   force =    -0.00002961    0.00000962    0.00000000
     atom   70 type  2   force =     0.00000170   -0.00002942    0.00000000
     atom   71 type  3   force =    -0.00000373   -0.00004458    0.00000000
     atom   72 type  3   force =    -0.00002517   -0.00003965    0.00000000

     Total force =     0.198087     Total SCF correction =     0.000187

     BFGS Geometry Optimization

     number of scf cycles    =   1
     number of bfgs steps    =   0

     energy   new            =    -923.6759745290 Ry

     new trust radius        =       0.0835649040 bohr
     new conv_thr            =       0.0000000100 Ry


ATOMIC_POSITIONS (crystal)
B        0.055718205   0.111288945   0.500000000
B        0.055642323   0.277736201   0.500000000
B        0.055642573   0.444571965   0.500000000
[...]
     atom   40 type  2   force =     0.00000000    0.00000000    0.00000000
     atom   41 type  2   force =     0.00000000    0.00000000    0.00000000
     atom   42 type  2   force =     0.00000000    0.00000000    0.00000000
     atom   43 type  2   force =     0.00000000    0.00000000    0.00000000
     atom   44 type  2   force =     0.00000000    0.00000000    0.00000000
     atom   45 type  2   force =     0.00000000    0.00000000    0.00000000
     atom   46 type  2   force =     0.00000000    0.00000000    0.00000000
     atom   47 type  2   force =     0.00000000    0.00000000    0.00000000
     atom   48 type  2   force =     0.00000000    0.00000000    0.00000000
     atom   49 type  2   force =     0.00000000    0.00000000    0.00000000
     atom   50 type  2   force =     0.00000000    0.00000000    0.00000000
     atom   51 type  2   force =     0.00000000    0.00000000    0.00000000
     atom   52 type  2   force =     0.00000000    0.00000000    0.00000000
     atom   53 type  2   force =     0.00000000    0.00000000    0.00000000
     atom   54 type  2   force =     0.00000000    0.00000000    0.00000000
     atom   55 type  2   force =     0.00000000    0.00000000    0.00000000
     atom   56 type  2   force =     0.00000000    0.00000000    0.00000000
     atom   57 type  2   force =     0.00000000    0.00000000    0.00000000
     atom   58 type  2   force =     0.00000000    0.00000000    0.00000000
     atom   59 type  2   force =     0.00000000    0.00000000    0.00000000
     atom   60 type  2   force =     0.00000000    0.00000000    0.00000000
     atom   61 type  2   force =     0.00000000    0.00000000    0.00000000
     atom   62 type  2   force =     0.00000000    0.00000000    0.00000000
     atom   63 type  2   force =     0.00000000    0.00000000    0.00000000
     atom   64 type  2   force =     0.00000000    0.00000000    0.00000000
     atom   65 type  2   force =     0.00000000    0.00000000    0.00000000
     atom   66 type  2   force =     0.00000000    0.00000000    0.00000000
     atom   67 type  2   force =     0.00000000    0.00000000    0.00000000
     atom   68 type  2   force =     0.00000000    0.00000000    0.00000000
     atom   69 type  2   force =     0.00000000    0.00000000    0.00000000
     atom   70 type  2   force =     0.00000000    0.00000000    0.00000000
     atom   71 type  3   force =     0.00000000    0.00000000    0.00000000
     atom   72 type  3   force =     0.00000000    0.00000000    0.00000000
     The Hubbard contrib.    to forces
     atom    1 type  1   force =     0.00000000    0.00000000    0.00000000
     atom    2 type  1   force =     0.00000000    0.00000000    0.00000000
     atom    3 type  1   force =     0.00000000    0.00000000    0.00000000
     atom    4 type  1   force =     0.00000000    0.00000000    0.00000000
     atom    5 type  1   force =     0.00000000    0.00000000    0.00000000
     atom    6 type  1   force =     0.00000000    0.00000000    0.00000000
     atom    7 type  1   force =     0.00000000    0.00000000    0.00000000
     atom    8 type  1   force =     0.00000000    0.00000000    0.00000000
     atom    9 type  1   force =     0.00000000    0.00000000    0.00000000
     atom   10 type  1   force =     0.00000000    0.00000000    0.00000000
     atom   11 type  1   force =     0.00000000    0.00000000    0.00000000
     atom   12 type  1   force =     0.00000000    0.00000000    0.00000000
     atom   13 type  1   force =     0.00000000    0.00000000    0.00000000
     atom   14 type  1   force =     0.00000000    0.00000000    0.00000000
     atom   15 type  1   force =     0.00000000    0.00000000    0.00000000
     atom   16 type  1   force =     0.00000000    0.00000000    0.00000000
     atom   17 type  1   force =     0.00000000    0.00000000    0.00000000
     atom   18 type  1   force =     0.00000000    0.00000000    0.00000000
     atom   19 type  1   force =     0.00000000    0.00000000    0.00000000
     atom   20 type  1   force =     0.00000000    0.00000000    0.00000000
     atom   21 type  1   force =     0.00000000    0.00000000    0.00000000
     atom   22 type  1   force =     0.00000000    0.00000000    0.00000000
     atom   23 type  1   force =     0.00000000    0.00000000    0.00000000
     atom   24 type  1   force =     0.00000000    0.00000000    0.00000000
     atom   25 type  1   force =     0.00000000    0.00000000    0.00000000
     atom   26 type  1   force =     0.00000000    0.00000000    0.00000000
     atom   27 type  1   force =     0.00000000    0.00000000    0.00000000
     atom   28 type  1   force =     0.00000000    0.00000000    0.00000000
     atom   29 type  1   force =     0.00000000    0.00000000    0.00000000
     atom   30 type  1   force =     0.00000000    0.00000000    0.00000000
     atom   31 type  1   force =     0.00000000    0.00000000    0.00000000
     atom   32 type  1   force =     0.00000000    0.00000000    0.00000000
     atom   33 type  1   force =     0.00000000    0.00000000    0.00000000
     atom   34 type  1   force =     0.00000000    0.00000000    0.00000000
     atom   35 type  1   force =     0.00000000    0.00000000    0.00000000
     atom   36 type  2   force =     0.00000000    0.00000000    0.00000000
     atom   37 type  2   force =     0.00000000    0.00000000    0.00000000
     atom   38 type  2   force =     0.00000000    0.00000000    0.00000000
     atom   39 type  2   force =     0.00000000    0.00000000    0.00000000
     atom   40 type  2   force =     0.00000000    0.00000000    0.00000000
     atom   41 type  2   force =     0.00000000    0.00000000    0.00000000
     atom   42 type  2   force =     0.00000000    0.00000000    0.00000000
     atom   43 type  2   force =     0.00000000    0.00000000    0.00000000
     atom   44 type  2   force =     0.00000000    0.00000000    0.00000000
     atom   45 type  2   force =     0.00000000    0.00000000    0.00000000
     atom   46 type  2   force =     0.00000000    0.00000000    0.00000000
     atom   47 type  2   force =     0.00000000    0.00000000    0.00000000
     atom   48 type  2   force =     0.00000000    0.00000000    0.00000000
     atom   49 type  2   force =     0.00000000    0.00000000    0.00000000
     atom   50 type  2   force =     0.00000000    0.00000000    0.00000000
     atom   51 type  2   force =     0.00000000    0.00000000    0.00000000
     atom   52 type  2   force =     0.00000000    0.00000000    0.00000000
     atom   53 type  2   force =     0.00000000    0.00000000    0.00000000
     atom   54 type  2   force =     0.00000000    0.00000000    0.00000000
     atom   55 type  2   force =     0.00000000    0.00000000    0.00000000
     atom   56 type  2   force =     0.00000000    0.00000000    0.00000000
     atom   57 type  2   force =     0.00000000    0.00000000    0.00000000
     atom   58 type  2   force =     0.00000000    0.00000000    0.00000000
     atom   59 type  2   force =     0.00000000    0.00000000    0.00000000
     atom   60 type  2   force =     0.00000000    0.00000000    0.00000000
     atom   61 type  2   force =     0.00000000    0.00000000    0.00000000
     atom   62 type  2   force =     0.00000000    0.00000000    0.00000000
     atom   63 type  2   force =     0.00000000    0.00000000    0.00000000
     atom   64 type  2   force =     0.00000000    0.00000000    0.00000000
     atom   65 type  2   force =     0.00000000    0.00000000    0.00000000
     atom   66 type  2   force =     0.00000000    0.00000000    0.00000000
     atom   67 type  2   force =     0.00000000    0.00000000    0.00000000
     atom   68 type  2   force =     0.00000000    0.00000000    0.00000000
     atom   69 type  2   force =     0.00000000    0.00000000    0.00000000
     atom   70 type  2   force =     0.00000000    0.00000000    0.00000000
     atom   71 type  3   force =     0.00000000    0.00000000    0.00000000
     atom   72 type  3   force =     0.00000000    0.00000000    0.00000000
     The SCF correction term to forces
     atom    1 type  1   force =    -0.00000088   -0.00000181    0.00000000
     atom    2 type  1   force =    -0.00000071   -0.00000043    0.00000000
     atom    3 type  1   force =    -0.00000073   -0.00000041    0.00000000
     atom    4 type  1   force =    -0.00000202    0.00000015    0.00000000
     atom    5 type  1   force =    -0.00000186    0.00000062    0.00000000
     atom    6 type  1   force =    -0.00000039   -0.00000192    0.00000000
     atom    7 type  1   force =    -0.00000028   -0.00000117    0.00000000
     atom    8 type  1   force =     0.00000026    0.00000003    0.00000000
     atom    9 type  1   force =     0.00000019    0.00000009    0.00000000
     atom   10 type  1   force =     0.00000014    0.00000021    0.00000000
     atom   11 type  1   force =    -0.00000117    0.00000035    0.00000000
     atom   12 type  1   force =    -0.00000151   -0.00000087    0.00000000
     atom   13 type  1   force =     0.00000125   -0.00000004    0.00000000
     atom   14 type  1   force =     0.00000099    0.00000026    0.00000000
     atom   15 type  1   force =     0.00000050    0.00000009    0.00000000
     atom   16 type  1   force =     0.00000035    0.00000037    0.00000000
     atom   17 type  1   force =     0.00000071    0.00000074    0.00000000
     atom   18 type  1   force =     0.00000058    0.00000111    0.00000000
     atom   19 type  1   force =    -0.00000035   -0.00000020    0.00000000
     atom   20 type  1   force =     0.00000004   -0.00000013    0.00000000
     atom   21 type  1   force =     0.00000077   -0.00000005    0.00000000
     atom   22 type  1   force =     0.00000036    0.00000070    0.00000000
     atom   23 type  1   force =    -0.00000009    0.00000011    0.00000000
     atom   24 type  1   force =     0.00000033    0.00000111    0.00000000
     atom   25 type  1   force =     0.00000112   -0.00000027    0.00000000
     atom   26 type  1   force =     0.00000027    0.00000083    0.00000000
     atom   27 type  1   force =     0.00000106    0.00000169    0.00000000
     atom   28 type  1   force =     0.00000200    0.00000007    0.00000000
     atom   29 type  1   force =     0.00000086   -0.00000018    0.00000000
     atom   30 type  1   force =    -0.00000017   -0.00000119    0.00000000
     atom   31 type  1   force =    -0.00000177   -0.00000102    0.00000000
     atom   32 type  1   force =    -0.00000112    0.00000044    0.00000000
     atom   33 type  1   force =    -0.00000056    0.00000102    0.00000000
     atom   34 type  1   force =    -0.00000005   -0.00000003    0.00000000
     atom   35 type  1   force =     0.00000060   -0.00000099    0.00000000
     atom   36 type  2   force =    -0.00000146   -0.00000326    0.00000000
     atom   37 type  2   force =    -0.00000089   -0.00000258    0.00000000
     atom   38 type  2   force =    -0.00000132   -0.00000078    0.00000000
     atom   39 type  2   force =    -0.00000270    0.00000050   -0.00000000
     atom   40 type  2   force =    -0.00000358    0.00000038    0.00000000
     atom   41 type  2   force =    -0.00000183   -0.00000105    0.00000000
     atom   42 type  2   force =     0.00000038   -0.00000245    0.00000000
     atom   43 type  2   force =     0.00000063   -0.00000046    0.00000000
     atom   44 type  2   force =     0.00000144    0.00000024    0.00000000
     atom   45 type  2   force =     0.00000093    0.00000107    0.00000000
     atom   46 type  2   force =    -0.00000011    0.00000079    0.00000000
     atom   47 type  2   force =    -0.00000196    0.00000158    0.00000000
     atom   48 type  2   force =     0.00000111    0.00000066   -0.00000000
     atom   49 type  2   force =     0.00000162   -0.00000039   -0.00000000
     atom   50 type  2   force =     0.00000060    0.00000009    0.00000000
     atom   51 type  2   force =     0.00000040    0.00000049    0.00000000
     atom   52 type  2   force =     0.00000047    0.00000163    0.00000000
     atom   53 type  2   force =    -0.00000089    0.00000096    0.00000000
     atom   54 type  2   force =     0.00000037   -0.00000124    0.00000000
     atom   55 type  2   force =     0.00000132    0.00000025    0.00000000
     atom   56 type  2   force =     0.00000335    0.00000307   -0.00000000
     atom   57 type  2   force =     0.00000437    0.00000136    0.00000000
     atom   58 type  2   force =     0.00000090    0.00000104    0.00000000
     atom   59 type  2   force =     0.00000117    0.00000040    0.00000000
     atom   60 type  2   force =     0.00000085    0.00000049   -0.00000000
     atom   61 type  2   force =     0.00000092    0.00000080    0.00000000
     atom   62 type  2   force =     0.00000013    0.00000306    0.00000000
     atom   63 type  2   force =     0.00000060    0.00000035    0.00000000
     atom   64 type  2   force =     0.00000272   -0.00000141   -0.00000000
     atom   65 type  2   force =    -0.00000040   -0.00000247    0.00000000
     atom   66 type  2   force =    -0.00000287   -0.00000167    0.00000000
     atom   67 type  2   force =    -0.00000289   -0.00000166    0.00000000
     atom   68 type  2   force =    -0.00000235    0.00000089    0.00000000
     atom   69 type  2   force =    -0.00000180    0.00000047    0.00000000
     atom   70 type  2   force =    -0.00000050   -0.00000179    0.00000000
     atom   71 type  3   force =     0.00000176    0.00000100    0.00000000
     atom   72 type  3   force =     0.00000004   -0.00000001    0.00000000

     Total force =     0.000943     Total SCF correction =     0.000016

     bfgs converged in   9 scf cycles and   8 bfgs steps
     (criteria: energy <  1.0E-05 Ry, force <  1.0E-03 Ry/Bohr)

     End of BFGS Geometry Optimization

     Final energy   =    -923.6952887693 Ry
Begin final coordinates

ATOMIC_POSITIONS (crystal)
B        0.055331454   0.110848940   0.500000000
B        0.055413464   0.277607823   0.500000000
B        0.055413473   0.444471998   0.500000000
B        0.055331466   0.611148869   0.500000000
B        0.055593447   0.777806963   0.500000000
B        0.055593431   0.944452824   0.500000000
B        0.222072659   0.110808493   0.500000000
B        0.221716066   0.277214054   0.500000000
B        0.222294944   0.444480634   0.500000000
B        0.221716070   0.611168353   0.500000000
B        0.222072659   0.777930492   0.500000000
B        0.222211517   0.944438922   0.500000000
B        0.388853542   0.110826594   0.500000000
B        0.388767326   0.276661070   0.500000000
B        0.388295620   0.442107371   0.500000000
B        0.388295612   0.612854597   0.500000000
B        0.388767326   0.778772589   0.500000000
B        0.388853537   0.944693272   0.500000000
B        0.555558718   0.111112530   0.500000000
B        0.555400497   0.277965354   0.500000000
B        0.554724403   0.444758739   0.500000000
B        0.554724413   0.776632013   0.500000000
B        0.555400494   0.944101482   0.500000000
B        0.722145233   0.111014006   0.500000000
B        0.722145234   0.277797599   0.500000000
B        0.722282799   0.444628816   0.500000000
B        0.723079721   0.611783998   0.500000000
B        0.723079698   0.777962069   0.500000000
B        0.722282789   0.944320343   0.500000000
B        0.888787591   0.111024332   0.500000000
B        0.888825724   0.277746044   0.500000000
B        0.888787606   0.444429616   0.500000000
B        0.888821350   0.611141607   0.500000000
B        0.889562977   0.778114656   0.500000000
B        0.888821329   0.944346080   0.500000000
N        0.110898743   0.055365099   0.500000000
N        0.110557492   0.221703908   0.500000000
N        0.111047525   0.388856902   0.500000000
N        0.110557510   0.555519867   0.500000000
N        0.110898751   0.722199944   0.500000000
N        0.111005107   0.888835713   0.500000000
N        0.277719928   0.055370987   0.500000000
N        0.277429422   0.221564463   0.500000000
N        0.277090590   0.387884148   0.500000000
N        0.277090596   0.555872708   0.500000000
N        0.277429440   0.722531231   0.500000000
N        0.277719924   0.889015220   0.500000000
N        0.444631856   0.055649071   0.500000000
N        0.444560609   0.221510937   0.500000000
N        0.443967983   0.386610784   0.500000000
N        0.443968000   0.724023477   0.500000000
N        0.444560612   0.889715924   0.500000000
N        0.611147684   0.055321873   0.500000000
N        0.611147680   0.222492104   0.500000000
N        0.611044791   0.389976317   0.500000000
N        0.611707133   0.558259662   0.500000000
N        0.611707118   0.720113761   0.500000000
N        0.611044792   0.887734762   0.500000000
N        0.777561684   0.055290601   0.500000000
N        0.777645682   0.222155999   0.500000000
N        0.777561684   0.388937387   0.500000000
N        0.777595172   0.555592544   0.500000000
N        0.778684738   0.722675523   0.500000000
N        0.777595160   0.888668923   0.500000000
N        0.944118856   0.055302900   0.500000000
N        0.944231319   0.222112723   0.500000000
N        0.944231329   0.388784887   0.500000000
N        0.944118860   0.555482243   0.500000000
N        0.944542773   0.722226351   0.500000000
N        0.944542760   0.888982714   0.500000000
C        0.559465024   0.613065691   0.500000000
C        0.448123687   0.557394987   0.500000000
End final coordinates



     Writing output data file BN.save
 
     init_run     :      2.19s CPU      2.61s WALL (       1 calls)
     electrons    :    126.79s CPU    128.81s WALL (       9 calls)
     update_pot   :      5.55s CPU      6.44s WALL (       8 calls)
     forces       :      4.62s CPU      4.65s WALL (       9 calls)

     Called by init_run:
     wfcinit      :      0.49s CPU      0.52s WALL (       1 calls)
     wfcinit:atom :      0.01s CPU      0.01s WALL (       1 calls)
     wfcinit:wfcr :      0.47s CPU      0.49s WALL (       1 calls)
     potinit      :      0.38s CPU      0.38s WALL (       1 calls)

     Called by electrons:
     c_bands      :    111.70s CPU    112.69s WALL (      90 calls)
     sum_band     :      8.17s CPU      8.32s WALL (      90 calls)
     v_of_rho     :      4.31s CPU      4.39s WALL (      94 calls)
     v_h          :      0.19s CPU      0.20s WALL (      94 calls)
     v_xc         :      4.12s CPU      4.19s WALL (      94 calls)
     mix_rho      :      1.00s CPU      1.03s WALL (      90 calls)

     Called by c_bands:
     init_us_2    :      1.34s CPU      1.38s WALL (     181 calls)
     cegterg      :    106.79s CPU    107.69s WALL (      90 calls)

     Called by sum_band:

     Called by *egterg:
     h_psi        :     54.83s CPU     55.34s WALL (     486 calls)
     g_psi        :      0.26s CPU      0.26s WALL (     395 calls)
     cdiaghg      :     30.62s CPU     30.81s WALL (     472 calls)
     cegterg:over :      8.09s CPU      8.13s WALL (     395 calls)
     cegterg:upda :      5.40s CPU      5.44s WALL (     395 calls)
     cegterg:last :      2.19s CPU      2.21s WALL (      93 calls)

     Called by h_psi:
     h_psi:pot    :     53.75s CPU     54.25s WALL (     486 calls)
     h_psi:calbec :      8.34s CPU      8.38s WALL (     486 calls)
     vloc_psi     :     37.19s CPU     37.60s WALL (     486 calls)
     add_vuspsi   :      8.22s CPU      8.27s WALL (     486 calls)

     General routines
     calbec       :      9.43s CPU      9.48s WALL (     522 calls)
     fft          :      3.41s CPU      3.46s WALL (    1985 calls)
     fftw         :     39.45s CPU     39.88s WALL (   98144 calls)
 
     Parallel routines
     fft_scatter  :     22.67s CPU     22.96s WALL (  100129 calls)
 
     PWSCF        :  2m22.54s CPU     2m28.03s WALL

 
   This run was terminated on:  14:11:38  10Feb2021            

=------------------------------------------------------------------------------=
   JOB DONE.
=------------------------------------------------------------------------------=
