
     Program PWSCF v.6.1 (svn rev. 13369) starts on 21Oct2019 at 17:46:23 

     This program is part of the open-source Quantum ESPRESSO suite
     for quantum simulation of materials; please cite
         "P. Giannozzi et al., J. Phys.:Condens. Matter 21 395502 (2009);
          URL http://www.quantum-espresso.org", 
     in publications or presentations arising from this work. More details at
     http://www.quantum-espresso.org/quote

     Parallel version (MPI), running on    32 processors
     K-points division:     npool     =       4
     R & G space division:  proc/nbgrp/npool/nimage =       8
     Reading input from relax.in

     Current dimensions of program PWSCF are:
     Max number of different atomic species (ntypx) = 10
     Max number of k-points (npk) =  40000
     Max angular momentum in pseudopotentials (lmaxx) =  3

     Subspace diagonalization in iterative solution of the eigenvalue problem:
     one sub-group per band group will be used
     scalapack distributed-memory algorithm (size of sub-group:  2*  2 procs)

     Found symmetry operation: I + ( -0.1667 -0.3333  0.3333)
     This is a supercell, fractional translations are disabled
 
     Parallelization info
     --------------------
     sticks:   dense  smooth     PW     G-vecs:    dense   smooth      PW
     Min         777     519    138                67649    36803    5096
     Max         778     520    139                67652    36806    5099
     Sum        6217    4153   1111               541199   294431   40789
 


     bravais-lattice index     =            0
     lattice parameter (alat)  =      19.3984  a.u.
     unit-cell volume          =    8616.2325 (a.u.)^3
     number of atoms/cell      =          120
     number of atomic types    =            3
     number of electrons       =      1200.00
     number of Kohn-Sham states=          720
     kinetic-energy cutoff     =      40.0000  Ry
     charge density cutoff     =     240.0000  Ry
     convergence threshold     =      1.0E-07
     mixing beta               =       0.3000
     number of iterations used =            8  plain     mixing
     Exchange-correlation      =  SLA  PW   PBX  PBC ( 1  4  3  4 0 0)
     nstep                     =           50


     celldm(1)=  19.398401  celldm(2)=   0.000000  celldm(3)=   0.000000
     celldm(4)=   0.000000  celldm(5)=   0.000000  celldm(6)=   0.000000

     crystal axes: (cart. coord. in units of alat)
               a(1) = (   1.000000   0.000000   0.000000 )  
               a(2) = (  -0.500000   0.866025   0.000000 )  
               a(3) = (   0.000000   0.000000   1.362978 )  

     reciprocal axes: (cart. coord. in units 2 pi/alat)
               b(1) = (  1.000000  0.577350  0.000000 )  
               b(2) = (  0.000000  1.154700  0.000000 )  
               b(3) = (  0.000000  0.000000  0.733687 )  


     PseudoPot. # 1 for O  read from file:
     /home/tjsmart/Pseudo/o_pbe_v1.2.uspp.F.UPF
     MD5 check sum: 734c27235a0248c51dbae37a1fbe46ec
     Pseudo is Ultrasoft + core correction, Zval =  6.0
     Generated by new atomic code, or converted to UPF format
     Using radial grid of  737 points,  5 beta functions with: 
                l(1) =   0
                l(2) =   0
                l(3) =   1
                l(4) =   1
                l(5) =   2
     Q(r) pseudized with  8 coefficients,  rinner =    0.900   0.900   0.900
                                                       0.900   0.900

     PseudoPot. # 2 for Fe read from file:
     /home/tjsmart/Pseudo/fe_pbe_v1.5.uspp.F.UPF
     MD5 check sum: a130daea23fe5165f5d574ae7f82ed95
     Pseudo is Ultrasoft + core correction, Zval = 16.0
     Generated by new atomic code, or converted to UPF format
     Using radial grid of  861 points,  6 beta functions with: 
                l(1) =   0
                l(2) =   0
                l(3) =   1
                l(4) =   1
                l(5) =   2
                l(6) =   2
     Q(r) pseudized with  8 coefficients,  rinner =    1.000   1.000   1.000
                                                       1.000   1.000

     PseudoPot. # 3 for Fe read from file:
     /home/tjsmart/Pseudo/fe_pbe_v1.5.uspp.F.UPF
     MD5 check sum: a130daea23fe5165f5d574ae7f82ed95
     Pseudo is Ultrasoft + core correction, Zval = 16.0
     Generated by new atomic code, or converted to UPF format
     Using radial grid of  861 points,  6 beta functions with: 
                l(1) =   0
                l(2) =   0
                l(3) =   1
                l(4) =   1
                l(5) =   2
                l(6) =   2
     Q(r) pseudized with  8 coefficients,  rinner =    1.000   1.000   1.000
                                                       1.000   1.000

     atomic species   valence    mass     pseudopotential
        O              6.00     1.00000     O ( 1.00)
        Fe1           16.00     1.00000     Fe( 1.00)
        Fe2           16.00     1.00000     Fe( 1.00)

     Starting magnetic structure 
     atomic species   magnetization
        O            0.000
        Fe1         -0.500
        Fe2          0.500


     Simplified LDA+U calculation (l_max = 2) with parameters (eV):
     atomic species    L          U    alpha       J0     beta
        Fe1            2     4.3000   0.0000   0.0000   0.0000
        Fe2            2     4.3000   0.0000   0.0000   0.0000



      6 Sym. Ops., with inversion, found



   Cartesian axes

     site n.     atom                  positions (alat units)
         1           O   tau(   1) = (   0.1524272   0.2886753   1.2493970  )
         2           O   tau(   2) = (  -0.0762137   0.4206809   1.2493970  )
         3           O   tau(   3) = (   0.3262135   0.2763435   0.1135813  )
         4           O   tau(   4) = (   0.3262137   0.0123318   0.1135813  )
         5           O   tau(   5) = (   0.0975728   0.1443375   0.1135813  )
         6           O   tau(   6) = (  -0.0762135   0.1566693   1.2493970  )
         7           O   tau(   7) = (   0.1524273   0.0000001   0.3407441  )
         8           O   tau(   8) = (  -0.0762137   0.1320058   0.3407441  )
         9           O   tau(   9) = (   0.0762136   0.4206810   0.5679076  )
        10           O   tau(  10) = (   0.0762136   0.1566694   0.5679076  )
        11           O   tau(  11) = (  -0.1524272   0.2886752   0.5679076  )
        12           O   tau(  12) = (   0.1737864   0.3010068   0.3407441  )
        13           O   tau(  13) = (   0.4024272   0.1443376   0.7950707  )
        14           O   tau(  14) = (   0.1737864   0.2763434   0.7950707  )
        15           O   tau(  15) = (   0.0762136   0.1320059   1.0222342  )
        16           O   tau(  16) = (  -0.1737863   0.3010069   1.0222342  )
        17           O   tau(  17) = (   0.3475727  -0.0000001   1.0222342  )
        18           O   tau(  18) = (   0.1737864   0.0123318   0.7950707  )
        19           Fe1 tau(  19) = (  -0.0000002   0.2886753   0.0285929  )
        20           Fe2 tau(  20) = (   0.0000000   0.0000000   0.1985722  )
        21           Fe1 tau(  21) = (   0.2500003   0.1443374   1.3343854  )
        22           Fe2 tau(  22) = (   0.0000000   0.0000000   1.1644061  )
        23           Fe1 tau(  23) = (   0.0000000   0.0000000   0.4829186  )
        24           Fe2 tau(  24) = (   0.2500003   0.1443374   0.6528981  )
        25           Fe1 tau(  25) = (  -0.0000002   0.2886753   0.4257330  )
        26           Fe2 tau(  26) = (   0.2500003   0.1443374   0.2557532  )
        27           Fe1 tau(  27) = (   0.2500003   0.1443374   0.9372453  )
        28           Fe2 tau(  28) = (  -0.0000002   0.2886753   1.1072251  )
        29           Fe1 tau(  29) = (   0.0000000   0.0000000   0.8800597  )
        30           Fe2 tau(  30) = (  -0.0000002   0.2886753   0.7100802  )
        31           O   tau(  31) = (   0.6524272   0.2886753   1.2493970  )
        32           O   tau(  32) = (   0.4237863   0.4206809   1.2493970  )
        33           O   tau(  33) = (   0.8262135   0.2763435   0.1135813  )
        34           O   tau(  34) = (   0.8262137   0.0123318   0.1135813  )
        35           O   tau(  35) = (   0.5975728   0.1443375   0.1135813  )
        36           O   tau(  36) = (   0.4237865   0.1566693   1.2493970  )
        37           O   tau(  37) = (   0.6524273   0.0000001   0.3407441  )
        38           O   tau(  38) = (   0.4237863   0.1320058   0.3407441  )
        39           O   tau(  39) = (   0.5762136   0.4206810   0.5679076  )
        40           O   tau(  40) = (   0.5762136   0.1566694   0.5679076  )
        41           O   tau(  41) = (   0.3475728   0.2886752   0.5679076  )
        42           O   tau(  42) = (   0.6737864   0.3010068   0.3407441  )
        43           O   tau(  43) = (   0.9024272   0.1443376   0.7950707  )
        44           O   tau(  44) = (   0.6737864   0.2763434   0.7950707  )
        45           O   tau(  45) = (   0.5762136   0.1320059   1.0222342  )
        46           O   tau(  46) = (   0.3262137   0.3010069   1.0222342  )
        47           O   tau(  47) = (   0.8475727  -0.0000001   1.0222342  )
        48           O   tau(  48) = (   0.6737864   0.0123318   0.7950707  )
        49           Fe1 tau(  49) = (   0.4999998   0.2886753   0.0285929  )
        50           Fe2 tau(  50) = (   0.5000000   0.0000000   0.1985722  )
        51           Fe1 tau(  51) = (   0.7500003   0.1443374   1.3343854  )
        52           Fe2 tau(  52) = (   0.5000000   0.0000000   1.1644061  )
        53           Fe1 tau(  53) = (   0.5000000   0.0000000   0.4829186  )
        54           Fe2 tau(  54) = (   0.7500003   0.1443374   0.6528981  )
        55           Fe1 tau(  55) = (   0.4999998   0.2886753   0.4257330  )
        56           Fe2 tau(  56) = (   0.7500003   0.1443374   0.2557532  )
        57           Fe1 tau(  57) = (   0.7500003   0.1443374   0.9372453  )
        58           Fe2 tau(  58) = (   0.4999998   0.2886753   1.1072251  )
        59           Fe1 tau(  59) = (   0.5000000   0.0000000   0.8800597  )
        60           Fe2 tau(  60) = (   0.4999998   0.2886753   0.7100802  )
        61           O   tau(  61) = (  -0.0975728   0.7216880   1.2493970  )
        62           O   tau(  62) = (  -0.3262137   0.8536936   1.2493970  )
        63           O   tau(  63) = (   0.0762135   0.7093562   0.1135813  )
        64           O   tau(  64) = (   0.0762137   0.4453446   0.1135813  )
        65           O   tau(  65) = (  -0.1524272   0.5773502   0.1135813  )
        66           O   tau(  66) = (  -0.3262135   0.5896820   1.2493970  )
        67           O   tau(  67) = (  -0.0975727   0.4330128   0.3407441  )
        68           O   tau(  68) = (  -0.3262137   0.5650186   0.3407441  )
        69           O   tau(  69) = (  -0.1737864   0.8536937   0.5679076  )
        70           O   tau(  70) = (  -0.1737864   0.5896821   0.5679076  )
        71           O   tau(  71) = (  -0.4024272   0.7216879   0.5679076  )
        72           O   tau(  72) = (  -0.0762136   0.7340196   0.3407441  )
        73           O   tau(  73) = (   0.1524272   0.5773503   0.7950707  )
        74           O   tau(  74) = (  -0.0762136   0.7093561   0.7950707  )
        75           O   tau(  75) = (  -0.1737864   0.5650187   1.0222342  )
        76           O   tau(  76) = (  -0.4237863   0.7340196   1.0222342  )
        77           O   tau(  77) = (   0.0975727   0.4330127   1.0222342  )
        78           O   tau(  78) = (  -0.0762136   0.4453445   0.7950707  )
        79           Fe1 tau(  79) = (  -0.2500002   0.7216880   0.0285929  )
        80           Fe2 tau(  80) = (  -0.2500000   0.4330127   0.1985722  )
        81           Fe1 tau(  81) = (   0.0000003   0.5773502   1.3343854  )
        82           Fe2 tau(  82) = (  -0.2500000   0.4330127   1.1644061  )
        83           Fe1 tau(  83) = (  -0.2500000   0.4330127   0.4829186  )
        84           Fe2 tau(  84) = (   0.0000003   0.5773502   0.6528981  )
        85           Fe1 tau(  85) = (  -0.2500002   0.7216880   0.4257330  )
        86           Fe2 tau(  86) = (   0.0000003   0.5773502   0.2557532  )
        87           Fe1 tau(  87) = (   0.0000003   0.5773502   0.9372453  )
        88           Fe2 tau(  88) = (  -0.2500002   0.7216880   1.1072251  )
        89           Fe1 tau(  89) = (  -0.2500000   0.4330127   0.8800597  )
        90           Fe2 tau(  90) = (  -0.2500002   0.7216880   0.7100802  )
        91           O   tau(  91) = (   0.4024272   0.7216880   1.2493970  )
        92           O   tau(  92) = (   0.1737863   0.8536936   1.2493970  )
        93           O   tau(  93) = (   0.5762135   0.7093562   0.1135813  )
        94           O   tau(  94) = (   0.5762137   0.4453446   0.1135813  )
        95           O   tau(  95) = (   0.3475728   0.5773502   0.1135813  )
        96           O   tau(  96) = (   0.1737865   0.5896820   1.2493970  )
        97           O   tau(  97) = (   0.4024273   0.4330128   0.3407441  )
        98           O   tau(  98) = (   0.1737863   0.5650186   0.3407441  )
        99           O   tau(  99) = (   0.3262136   0.8536937   0.5679076  )
       100           O   tau( 100) = (   0.3262136   0.5896821   0.5679076  )
       101           O   tau( 101) = (   0.0975728   0.7216879   0.5679076  )
       102           O   tau( 102) = (   0.4237864   0.7340196   0.3407441  )
       103           O   tau( 103) = (   0.6524272   0.5773503   0.7950707  )
       104           O   tau( 104) = (   0.4237864   0.7093561   0.7950707  )
       105           O   tau( 105) = (   0.3262136   0.5650187   1.0222342  )
       106           O   tau( 106) = (   0.0762137   0.7340196   1.0222342  )
       107           O   tau( 107) = (   0.5975727   0.4330127   1.0222342  )
       108           O   tau( 108) = (   0.4237864   0.4453445   0.7950707  )
       109           Fe1 tau( 109) = (   0.2499998   0.7216880   0.0285929  )
       110           Fe2 tau( 110) = (   0.2500000   0.4330127   0.1985722  )
       111           Fe1 tau( 111) = (   0.5000003   0.5773502   1.3343854  )
       112           Fe2 tau( 112) = (   0.2500000   0.4330127   1.1644061  )
       113           Fe1 tau( 113) = (   0.2500000   0.4330127   0.4829186  )
       114           Fe2 tau( 114) = (   0.5000003   0.5773502   0.6528981  )
       115           Fe1 tau( 115) = (   0.2499998   0.7216880   0.4257330  )
       116           Fe2 tau( 116) = (   0.5000003   0.5773502   0.2557532  )
       117           Fe1 tau( 117) = (   0.5000003   0.5773502   0.9372453  )
       118           Fe2 tau( 118) = (   0.2499998   0.7216880   1.1072251  )
       119           Fe1 tau( 119) = (   0.2500000   0.4330127   0.8800597  )
       120           Fe2 tau( 120) = (   0.2499998   0.7216880   0.7100802  )

     number of k points=     4  Methfessel-Paxton smearing, width (Ry)=  0.0050
                       cart. coord. in units 2pi/alat
        k(    1) = (   0.0000000   0.0000000   0.0000000), wk =   0.1250000
        k(    2) = (   0.0000000   0.0000000  -0.3668437), wk =   0.1250000
        k(    3) = (   0.0000000  -0.5773502   0.0000000), wk =   0.3750000
        k(    4) = (   0.0000000  -0.5773502  -0.3668437), wk =   0.3750000

     Dense  grid:   541199 G-vectors     FFT dimensions: (  96,  96, 135)

     Smooth grid:   294431 G-vectors     FFT dimensions: (  80,  80, 108)

     Estimated max dynamical RAM per process >     848.61MB

     Estimated total allocated dynamical RAM >   27155.52MB
     Generating pointlists ...
     new r_m :   0.0800 (alat units)  1.5511 (a.u.) for type    1
     new r_m :   0.0800 (alat units)  1.5511 (a.u.) for type    2
     new r_m :   0.0800 (alat units)  1.5511 (a.u.) for type    3

     Check: negative/imaginary core charge=   -0.000025    0.000000

     Initial potential from superposition of free atoms

     starting charge 1151.99961, renormalised to 1200.00000
     Number of +U iterations with fixed ns =  0
     Starting occupations:
 --- enter write_ns ---
 LDA+U parameters:
U( 2)     =  4.30000000
alpha( 2) =  0.00000000
U( 3)     =  4.30000000
alpha( 3) =  0.00000000
atom   19   Tr[ns(na)] (up, down, total) =   1.00000  5.00000  6.00000
   spin  1
    eigenvalues: 
  0.200  0.200  0.200  0.200  0.200
    eigenvectors:
  1.000  0.000  0.000  0.000  0.000
  0.000  1.000  0.000  0.000  0.000
  0.000  0.000  1.000  0.000  0.000
  0.000  0.000  0.000  1.000  0.000
  0.000  0.000  0.000  0.000  1.000
    occupations:
  0.200  0.000  0.000  0.000  0.000
  0.000  0.200  0.000  0.000  0.000
  0.000  0.000  0.200  0.000  0.000
  0.000  0.000  0.000  0.200  0.000
  0.000  0.000  0.000  0.000  0.200
   spin  2
    eigenvalues: 
  1.000  1.000  1.000  1.000  1.000
    eigenvectors:
  1.000  0.000  0.000  0.000  0.000
  0.000  1.000  0.000  0.000  0.000
  0.000  0.000  1.000  0.000  0.000
  0.000  0.000  0.000  1.000  0.000
  0.000  0.000  0.000  0.000  1.000
    occupations:
  1.000  0.000  0.000  0.000  0.000
  0.000  1.000  0.000  0.000  0.000
  0.000  0.000  1.000  0.000  0.000
  0.000  0.000  0.000  1.000  0.000
  0.000  0.000  0.000  0.000  1.000
atomic mag. moment =    -4.000000
atom   20   Tr[ns(na)] (up, down, total) =   5.00000  1.00000  6.00000
   spin  1
    eigenvalues: 
  1.000  1.000  1.000  1.000  1.000
    eigenvectors:
  1.000  0.000  0.000  0.000  0.000
  0.000  1.000  0.000  0.000  0.000
  0.000  0.000  1.000  0.000  0.000
  0.000  0.000  0.000  1.000  0.000
  0.000  0.000  0.000  0.000  1.000
    occupations:
  1.000  0.000  0.000  0.000  0.000
  0.000  1.000  0.000  0.000  0.000
  0.000  0.000  1.000  0.000  0.000
  0.000  0.000  0.000  1.000  0.000
  0.000  0.000  0.000  0.000  1.000
   spin  2
    eigenvalues: 
  0.200  0.200  0.200  0.200  0.200
    eigenvectors:
  1.000  0.000  0.000  0.000  0.000
  0.000  1.000  0.000  0.000  0.000
  0.000  0.000  1.000  0.000  0.000
  0.000  0.000  0.000  1.000  0.000
  0.000  0.000  0.000  0.000  1.000
    occupations:
  0.200  0.000  0.000  0.000  0.000
  0.000  0.200  0.000  0.000  0.000
  0.000  0.000  0.200  0.000  0.000
  0.000  0.000  0.000  0.200  0.000
  0.000  0.000  0.000  0.000  0.200
atomic mag. moment =     4.000000
atom   21   Tr[ns(na)] (up, down, total) =   1.00000  5.00000  6.00000
   spin  1
    eigenvalues: 
  0.200  0.200  0.200  0.200  0.200
    eigenvectors:
  1.000  0.000  0.000  0.000  0.000
  0.000  1.000  0.000  0.000  0.000
  0.000  0.000  1.000  0.000  0.000
  0.000  0.000  0.000  1.000  0.000
  0.000  0.000  0.000  0.000  1.000
    occupations:
  0.200  0.000  0.000  0.000  0.000
  0.000  0.200  0.000  0.000  0.000
  0.000  0.000  0.200  0.000  0.000
  0.000  0.000  0.000  0.200  0.000
  0.000  0.000  0.000  0.000  0.200
   spin  2
    eigenvalues: 
  1.000  1.000  1.000  1.000  1.000
    eigenvectors:
  1.000  0.000  0.000  0.000  0.000
  0.000  1.000  0.000  0.000  0.000
  0.000  0.000  1.000  0.000  0.000
  0.000  0.000  0.000  1.000  0.000
  0.000  0.000  0.000  0.000  1.000
    occupations:
  1.000  0.000  0.000  0.000  0.000
  0.000  1.000  0.000  0.000  0.000
  0.000  0.000  1.000  0.000  0.000
  0.000  0.000  0.000  1.000  0.000
  0.000  0.000  0.000  0.000  1.000
atomic mag. moment =    -4.000000
atom   22   Tr[ns(na)] (up, down, total) =   5.00000  1.00000  6.00000
   spin  1
    eigenvalues: 
  1.000  1.000  1.000  1.000  1.000
    eigenvectors:
  1.000  0.000  0.000  0.000  0.000
  0.000  1.000  0.000  0.000  0.000
  0.000  0.000  1.000  0.000  0.000
  0.000  0.000  0.000  1.000  0.000
  0.000  0.000  0.000  0.000  1.000
    occupations:
  1.000  0.000  0.000  0.000  0.000
  0.000  1.000  0.000  0.000  0.000
  0.000  0.000  1.000  0.000  0.000
  0.000  0.000  0.000  1.000  0.000
  0.000  0.000  0.000  0.000  1.000
   spin  2
    eigenvalues: 
  0.200  0.200  0.200  0.200  0.200
    eigenvectors:
  1.000  0.000  0.000  0.000  0.000
  0.000  1.000  0.000  0.000  0.000
  0.000  0.000  1.000  0.000  0.000
  0.000  0.000  0.000  1.000  0.000
  0.000  0.000  0.000  0.000  1.000
    occupations:
  0.200  0.000  0.000  0.000  0.000
  0.000  0.200  0.000  0.000  0.000
  0.000  0.000  0.200  0.000  0.000
  0.000  0.000  0.000  0.200  0.000
  0.000  0.000  0.000  0.000  0.200
atomic mag. moment =     4.000000
atom   23   Tr[ns(na)] (up, down, total) =   1.00000  5.00000  6.00000
   spin  1
    eigenvalues: 
  0.200  0.200  0.200  0.200  0.200
    eigenvectors:
  1.000  0.000  0.000  0.000  0.000
  0.000  1.000  0.000  0.000  0.000
  0.000  0.000  1.000  0.000  0.000
  0.000  0.000  0.000  1.000  0.000
  0.000  0.000  0.000  0.000  1.000
    occupations:
  0.200  0.000  0.000  0.000  0.000
  0.000  0.200  0.000  0.000  0.000
  0.000  0.000  0.200  0.000  0.000
  0.000  0.000  0.000  0.200  0.000
  0.000  0.000  0.000  0.000  0.200
   spin  2
    eigenvalues: 
  1.000  1.000  1.000  1.000  1.000
    eigenvectors:
  1.000  0.000  0.000  0.000  0.000
  0.000  1.000  0.000  0.000  0.000
  0.000  0.000  1.000  0.000  0.000
  0.000  0.000  0.000  1.000  0.000
  0.000  0.000  0.000  0.000  1.000
    occupations:
  1.000  0.000  0.000  0.000  0.000
  0.000  1.000  0.000  0.000  0.000
  0.000  0.000  1.000  0.000  0.000
  0.000  0.000  0.000  1.000  0.000
  0.000  0.000  0.000  0.000  1.000
atomic mag. moment =    -4.000000
atom   24   Tr[ns(na)] (up, down, total) =   5.00000  1.00000  6.00000
   spin  1
    eigenvalues: 
  1.000  1.000  1.000  1.000  1.000
    eigenvectors:
  1.000  0.000  0.000  0.000  0.000
  0.000  1.000  0.000  0.000  0.000
  0.000  0.000  1.000  0.000  0.000
  0.000  0.000  0.000  1.000  0.000
  0.000  0.000  0.000  0.000  1.000
    occupations:
  1.000  0.000  0.000  0.000  0.000
  0.000  1.000  0.000  0.000  0.000
  0.000  0.000  1.000  0.000  0.000
  0.000  0.000  0.000  1.000  0.000
  0.000  0.000  0.000  0.000  1.000
   spin  2
    eigenvalues: 
  0.200  0.200  0.200  0.200  0.200
    eigenvectors:
  1.000  0.000  0.000  0.000  0.000
  0.000  1.000  0.000  0.000  0.000
  0.000  0.000  1.000  0.000  0.000
  0.000  0.000  0.000  1.000  0.000
  0.000  0.000  0.000  0.000  1.000
    occupations:
  0.200  0.000  0.000  0.000  0.000
  0.000  0.200  0.000  0.000  0.000
  0.000  0.000  0.200  0.000  0.000
  0.000  0.000  0.000  0.200  0.000
  0.000  0.000  0.000  0.000  0.200
atomic mag. moment =     4.000000
atom   25   Tr[ns(na)] (up, down, total) =   1.00000  5.00000  6.00000
   spin  1
    eigenvalues: 
  0.200  0.200  0.200  0.200  0.200
    eigenvectors:
  1.000  0.000  0.000  0.000  0.000
  0.000  1.000  0.000  0.000  0.000
  0.000  0.000  1.000  0.000  0.000
  0.000  0.000  0.000  1.000  0.000
  0.000  0.000  0.000  0.000  1.000
    occupations:
  0.200  0.000  0.000  0.000  0.000
  0.000  0.200  0.000  0.000  0.000
  0.000  0.000  0.200  0.000  0.000
  0.000  0.000  0.000  0.200  0.000
  0.000  0.000  0.000  0.000  0.200
   spin  2
    eigenvalues: 
  1.000  1.000  1.000  1.000  1.000
    eigenvectors:
  1.000  0.000  0.000  0.000  0.000
  0.000  1.000  0.000  0.000  0.000
  0.000  0.000  1.000  0.000  0.000
  0.000  0.000  0.000  1.000  0.000
  0.000  0.000  0.000  0.000  1.000
    occupations:
  1.000  0.000  0.000  0.000  0.000
  0.000  1.000  0.000  0.000  0.000
  0.000  0.000  1.000  0.000  0.000
  0.000  0.000  0.000  1.000  0.000
  0.000  0.000  0.000  0.000  1.000
atomic mag. moment =    -4.000000
atom   26   Tr[ns(na)] (up, down, total) =   5.00000  1.00000  6.00000
   spin  1
    eigenvalues: 
  1.000  1.000  1.000  1.000  1.000
    eigenvectors:
  1.000  0.000  0.000  0.000  0.000
  0.000  1.000  0.000  0.000  0.000
  0.000  0.000  1.000  0.000  0.000
  0.000  0.000  0.000  1.000  0.000
  0.000  0.000  0.000  0.000  1.000
    occupations:
  1.000  0.000  0.000  0.000  0.000
  0.000  1.000  0.000  0.000  0.000
  0.000  0.000  1.000  0.000  0.000
  0.000  0.000  0.000  1.000  0.000
  0.000  0.000  0.000  0.000  1.000
   spin  2
    eigenvalues: 
  0.200  0.200  0.200  0.200  0.200
    eigenvectors:
  1.000  0.000  0.000  0.000  0.000
  0.000  1.000  0.000  0.000  0.000
  0.000  0.000  1.000  0.000  0.000
  0.000  0.000  0.000  1.000  0.000
  0.000  0.000  0.000  0.000  1.000
    occupations:
  0.200  0.000  0.000  0.000  0.000
  0.000  0.200  0.000  0.000  0.000
  0.000  0.000  0.200  0.000  0.000
  0.000  0.000  0.000  0.200  0.000
  0.000  0.000  0.000  0.000  0.200
atomic mag. moment =     4.000000
atom   27   Tr[ns(na)] (up, down, total) =   1.00000  5.00000  6.00000
   spin  1
    eigenvalues: 
  0.200  0.200  0.200  0.200  0.200
    eigenvectors:
  1.000  0.000  0.000  0.000  0.000
  0.000  1.000  0.000  0.000  0.000
  0.000  0.000  1.000  0.000  0.000
  0.000  0.000  0.000  1.000  0.000
  0.000  0.000  0.000  0.000  1.000
    occupations:
  0.200  0.000  0.000  0.000  0.000
  0.000  0.200  0.000  0.000  0.000
  0.000  0.000  0.200  0.000  0.000
  0.000  0.000  0.000  0.200  0.000
  0.000  0.000  0.000  0.000  0.200
   spin  2
    eigenvalues: 
  1.000  1.000  1.000  1.000  1.000
    eigenvectors:
  1.000  0.000  0.000  0.000  0.000
  0.000  1.000  0.000  0.000  0.000
  0.000  0.000  1.000  0.000  0.000
  0.000  0.000  0.000  1.000  0.000
  0.000  0.000  0.000  0.000  1.000
    occupations:
  1.000  0.000  0.000  0.000  0.000
  0.000  1.000  0.000  0.000  0.000
  0.000  0.000  1.000  0.000  0.000
  0.000  0.000  0.000  1.000  0.000
  0.000  0.000  0.000  0.000  1.000
atomic mag. moment =    -4.000000
atom   28   Tr[ns(na)] (up, down, total) =   5.00000  1.00000  6.00000
   spin  1
    eigenvalues: 
  1.000  1.000  1.000  1.000  1.000
    eigenvectors:
  1.000  0.000  0.000  0.000  0.000
  0.000  1.000  0.000  0.000  0.000
  0.000  0.000  1.000  0.000  0.000
  0.000  0.000  0.000  1.000  0.000
  0.000  0.000  0.000  0.000  1.000
    occupations:
  1.000  0.000  0.000  0.000  0.000
  0.000  1.000  0.000  0.000  0.000
  0.000  0.000  1.000  0.000  0.000
  0.000  0.000  0.000  1.000  0.000
  0.000  0.000  0.000  0.000  1.000
   spin  2
    eigenvalues: 
  0.200  0.200  0.200  0.200  0.200
    eigenvectors:
  1.000  0.000  0.000  0.000  0.000
  0.000  1.000  0.000  0.000  0.000
  0.000  0.000  1.000  0.000  0.000
  0.000  0.000  0.000  1.000  0.000
  0.000  0.000  0.000  0.000  1.000
    occupations:
  0.200  0.000  0.000  0.000  0.000
  0.000  0.200  0.000  0.000  0.000
  0.000  0.000  0.200  0.000  0.000
  0.000  0.000  0.000  0.200  0.000
  0.000  0.000  0.000  0.000  0.200
atomic mag. moment =     4.000000
atom   29   Tr[ns(na)] (up, down, total) =   1.00000  5.00000  6.00000
   spin  1
    eigenvalues: 
  0.200  0.200  0.200  0.200  0.200
    eigenvectors:
  1.000  0.000  0.000  0.000  0.000
  0.000  1.000  0.000  0.000  0.000
  0.000  0.000  1.000  0.000  0.000
  0.000  0.000  0.000  1.000  0.000
  0.000  0.000  0.000  0.000  1.000
    occupations:
  0.200  0.000  0.000  0.000  0.000
  0.000  0.200  0.000  0.000  0.000
  0.000  0.000  0.200  0.000  0.000
  0.000  0.000  0.000  0.200  0.000
  0.000  0.000  0.000  0.000  0.200
   spin  2
    eigenvalues: 
  1.000  1.000  1.000  1.000  1.000
    eigenvectors:
  1.000  0.000  0.000  0.000  0.000
  0.000  1.000  0.000  0.000  0.000
  0.000  0.000  1.000  0.000  0.000
  0.000  0.000  0.000  1.000  0.000
  0.000  0.000  0.000  0.000  1.000
    occupations:
  1.000  0.000  0.000  0.000  0.000
  0.000  1.000  0.000  0.000  0.000
  0.000  0.000  1.000  0.000  0.000
  0.000  0.000  0.000  1.000  0.000
  0.000  0.000  0.000  0.000  1.000
atomic mag. moment =    -4.000000
atom   30   Tr[ns(na)] (up, down, total) =   5.00000  1.00000  6.00000
   spin  1
    eigenvalues: 
  1.000  1.000  1.000  1.000  1.000
    eigenvectors:
  1.000  0.000  0.000  0.000  0.000
  0.000  1.000  0.000  0.000  0.000
  0.000  0.000  1.000  0.000  0.000
  0.000  0.000  0.000  1.000  0.000
  0.000  0.000  0.000  0.000  1.000
    occupations:
  1.000  0.000  0.000  0.000  0.000
  0.000  1.000  0.000  0.000  0.000
  0.000  0.000  1.000  0.000  0.000
  0.000  0.000  0.000  1.000  0.000
  0.000  0.000  0.000  0.000  1.000
   spin  2
    eigenvalues: 
  0.200  0.200  0.200  0.200  0.200
    eigenvectors:
  1.000  0.000  0.000  0.000  0.000
  0.000  1.000  0.000  0.000  0.000
  0.000  0.000  1.000  0.000  0.000
  0.000  0.000  0.000  1.000  0.000
  0.000  0.000  0.000  0.000  1.000
    occupations:
  0.200  0.000  0.000  0.000  0.000
  0.000  0.200  0.000  0.000  0.000
  0.000  0.000  0.200  0.000  0.000
  0.000  0.000  0.000  0.200  0.000
  0.000  0.000  0.000  0.000  0.200
atomic mag. moment =     4.000000
atom   49   Tr[ns(na)] (up, down, total) =   1.00000  5.00000  6.00000
   spin  1
    eigenvalues: 
  0.200  0.200  0.200  0.200  0.200
    eigenvectors:
  1.000  0.000  0.000  0.000  0.000
  0.000  1.000  0.000  0.000  0.000
  0.000  0.000  1.000  0.000  0.000
  0.000  0.000  0.000  1.000  0.000
  0.000  0.000  0.000  0.000  1.000
    occupations:
  0.200  0.000  0.000  0.000  0.000
  0.000  0.200  0.000  0.000  0.000
  0.000  0.000  0.200  0.000  0.000
  0.000  0.000  0.000  0.200  0.000
  0.000  0.000  0.000  0.000  0.200
   spin  2
    eigenvalues: 
  1.000  1.000  1.000  1.000  1.000
    eigenvectors:
  1.000  0.000  0.000  0.000  0.000
  0.000  1.000  0.000  0.000  0.000
  0.000  0.000  1.000  0.000  0.000
  0.000  0.000  0.000  1.000  0.000
  0.000  0.000  0.000  0.000  1.000
    occupations:
  1.000  0.000  0.000  0.000  0.000
  0.000  1.000  0.000  0.000  0.000
  0.000  0.000  1.000  0.000  0.000
  0.000  0.000  0.000  1.000  0.000
  0.000  0.000  0.000  0.000  1.000
atomic mag. moment =    -4.000000
atom   50   Tr[ns(na)] (up, down, total) =   5.00000  1.00000  6.00000
   spin  1
    eigenvalues: 
  1.000  1.000  1.000  1.000  1.000
    eigenvectors:
  1.000  0.000  0.000  0.000  0.000
  0.000  1.000  0.000  0.000  0.000
  0.000  0.000  1.000  0.000  0.000
  0.000  0.000  0.000  1.000  0.000
  0.000  0.000  0.000  0.000  1.000
    occupations:
  1.000  0.000  0.000  0.000  0.000
  0.000  1.000  0.000  0.000  0.000
  0.000  0.000  1.000  0.000  0.000
  0.000  0.000  0.000  1.000  0.000
  0.000  0.000  0.000  0.000  1.000
   spin  2
    eigenvalues: 
  0.200  0.200  0.200  0.200  0.200
    eigenvectors:
  1.000  0.000  0.000  0.000  0.000
  0.000  1.000  0.000  0.000  0.000
  0.000  0.000  1.000  0.000  0.000
  0.000  0.000  0.000  1.000  0.000
  0.000  0.000  0.000  0.000  1.000
    occupations:
  0.200  0.000  0.000  0.000  0.000
  0.000  0.200  0.000  0.000  0.000
  0.000  0.000  0.200  0.000  0.000
  0.000  0.000  0.000  0.200  0.000
  0.000  0.000  0.000  0.000  0.200
atomic mag. moment =     4.000000
atom   51   Tr[ns(na)] (up, down, total) =   1.00000  5.00000  6.00000
   spin  1
    eigenvalues: 
  0.200  0.200  0.200  0.200  0.200
    eigenvectors:
  1.000  0.000  0.000  0.000  0.000
  0.000  1.000  0.000  0.000  0.000
  0.000  0.000  1.000  0.000  0.000
  0.000  0.000  0.000  1.000  0.000
  0.000  0.000  0.000  0.000  1.000
    occupations:
  0.200  0.000  0.000  0.000  0.000
  0.000  0.200  0.000  0.000  0.000
  0.000  0.000  0.200  0.000  0.000
  0.000  0.000  0.000  0.200  0.000
  0.000  0.000  0.000  0.000  0.200
   spin  2
    eigenvalues: 
  1.000  1.000  1.000  1.000  1.000
    eigenvectors:
  1.000  0.000  0.000  0.000  0.000
  0.000  1.000  0.000  0.000  0.000
  0.000  0.000  1.000  0.000  0.000
  0.000  0.000  0.000  1.000  0.000
  0.000  0.000  0.000  0.000  1.000
    occupations:
  1.000  0.000  0.000  0.000  0.000
  0.000  1.000  0.000  0.000  0.000
  0.000  0.000  1.000  0.000  0.000
  0.000  0.000  0.000  1.000  0.000
  0.000  0.000  0.000  0.000  1.000
atomic mag. moment =    -4.000000
atom   52   Tr[ns(na)] (up, down, total) =   5.00000  1.00000  6.00000
   spin  1
    eigenvalues: 
  1.000  1.000  1.000  1.000  1.000
    eigenvectors:
  1.000  0.000  0.000  0.000  0.000
  0.000  1.000  0.000  0.000  0.000
  0.000  0.000  1.000  0.000  0.000
  0.000  0.000  0.000  1.000  0.000
  0.000  0.000  0.000  0.000  1.000
    occupations:
  1.000  0.000  0.000  0.000  0.000
  0.000  1.000  0.000  0.000  0.000
  0.000  0.000  1.000  0.000  0.000
  0.000  0.000  0.000  1.000  0.000
  0.000  0.000  0.000  0.000  1.000
   spin  2
    eigenvalues: 
  0.200  0.200  0.200  0.200  0.200
    eigenvectors:
  1.000  0.000  0.000  0.000  0.000
  0.000  1.000  0.000  0.000  0.000
  0.000  0.000  1.000  0.000  0.000
  0.000  0.000  0.000  1.000  0.000
  0.000  0.000  0.000  0.000  1.000
    occupations:
  0.200  0.000  0.000  0.000  0.000
  0.000  0.200  0.000  0.000  0.000
  0.000  0.000  0.200  0.000  0.000
  0.000  0.000  0.000  0.200  0.000
  0.000  0.000  0.000  0.000  0.200
atomic mag. moment =     4.000000
atom   53   Tr[ns(na)] (up, down, total) =   1.00000  5.00000  6.00000
   spin  1
    eigenvalues: 
  0.200  0.200  0.200  0.200  0.200
    eigenvectors:
  1.000  0.000  0.000  0.000  0.000
  0.000  1.000  0.000  0.000  0.000
  0.000  0.000  1.000  0.000  0.000
  0.000  0.000  0.000  1.000  0.000
  0.000  0.000  0.000  0.000  1.000
    occupations:
  0.200  0.000  0.000  0.000  0.000
  0.000  0.200  0.000  0.000  0.000
  0.000  0.000  0.200  0.000  0.000
  0.000  0.000  0.000  0.200  0.000
  0.000  0.000  0.000  0.000  0.200
   spin  2
    eigenvalues: 
  1.000  1.000  1.000  1.000  1.000
    eigenvectors:
  1.000  0.000  0.000  0.000  0.000
  0.000  1.000  0.000  0.000  0.000
  0.000  0.000  1.000  0.000  0.000
  0.000  0.000  0.000  1.000  0.000
  0.000  0.000  0.000  0.000  1.000
    occupations:
  1.000  0.000  0.000  0.000  0.000
  0.000  1.000  0.000  0.000  0.000
  0.000  0.000  1.000  0.000  0.000
  0.000  0.000  0.000  1.000  0.000
  0.000  0.000  0.000  0.000  1.000
atomic mag. moment =    -4.000000
atom   54   Tr[ns(na)] (up, down, total) =   5.00000  1.00000  6.00000
   spin  1
    eigenvalues: 
  1.000  1.000  1.000  1.000  1.000
    eigenvectors:
  1.000  0.000  0.000  0.000  0.000
  0.000  1.000  0.000  0.000  0.000
  0.000  0.000  1.000  0.000  0.000
  0.000  0.000  0.000  1.000  0.000
  0.000  0.000  0.000  0.000  1.000
    occupations:
  1.000  0.000  0.000  0.000  0.000
  0.000  1.000  0.000  0.000  0.000
  0.000  0.000  1.000  0.000  0.000
  0.000  0.000  0.000  1.000  0.000
  0.000  0.000  0.000  0.000  1.000
   spin  2
    eigenvalues: 
  0.200  0.200  0.200  0.200  0.200
    eigenvectors:
  1.000  0.000  0.000  0.000  0.000
  0.000  1.000  0.000  0.000  0.000
  0.000  0.000  1.000  0.000  0.000
  0.000  0.000  0.000  1.000  0.000
  0.000  0.000  0.000  0.000  1.000
    occupations:
  0.200  0.000  0.000  0.000  0.000
  0.000  0.200  0.000  0.000  0.000
  0.000  0.000  0.200  0.000  0.000
  0.000  0.000  0.000  0.200  0.000
  0.000  0.000  0.000  0.000  0.200
atomic mag. moment =     4.000000
atom   55   Tr[ns(na)] (up, down, total) =   1.00000  5.00000  6.00000
   spin  1
    eigenvalues: 
  0.200  0.200  0.200  0.200  0.200
    eigenvectors:
  1.000  0.000  0.000  0.000  0.000
  0.000  1.000  0.000  0.000  0.000
  0.000  0.000  1.000  0.000  0.000
  0.000  0.000  0.000  1.000  0.000
  0.000  0.000  0.000  0.000  1.000
    occupations:
  0.200  0.000  0.000  0.000  0.000
  0.000  0.200  0.000  0.000  0.000
  0.000  0.000  0.200  0.000  0.000
  0.000  0.000  0.000  0.200  0.000
  0.000  0.000  0.000  0.000  0.200
   spin  2
    eigenvalues: 
  1.000  1.000  1.000  1.000  1.000
    eigenvectors:
  1.000  0.000  0.000  0.000  0.000
  0.000  1.000  0.000  0.000  0.000
  0.000  0.000  1.000  0.000  0.000
  0.000  0.000  0.000  1.000  0.000
  0.000  0.000  0.000  0.000  1.000
    occupations:
  1.000  0.000  0.000  0.000  0.000
  0.000  1.000  0.000  0.000  0.000
  0.000  0.000  1.000  0.000  0.000
  0.000  0.000  0.000  1.000  0.000
  0.000  0.000  0.000  0.000  1.000
atomic mag. moment =    -4.000000
atom   56   Tr[ns(na)] (up, down, total) =   5.00000  1.00000  6.00000
   spin  1
    eigenvalues: 
  1.000  1.000  1.000  1.000  1.000
    eigenvectors:
  1.000  0.000  0.000  0.000  0.000
  0.000  1.000  0.000  0.000  0.000
  0.000  0.000  1.000  0.000  0.000
  0.000  0.000  0.000  1.000  0.000
  0.000  0.000  0.000  0.000  1.000
    occupations:
  1.000  0.000  0.000  0.000  0.000
  0.000  1.000  0.000  0.000  0.000
  0.000  0.000  1.000  0.000  0.000
  0.000  0.000  0.000  1.000  0.000
  0.000  0.000  0.000  0.000  1.000
   spin  2
    eigenvalues: 
  0.200  0.200  0.200  0.200  0.200
    eigenvectors:
  1.000  0.000  0.000  0.000  0.000
  0.000  1.000  0.000  0.000  0.000
  0.000  0.000  1.000  0.000  0.000
  0.000  0.000  0.000  1.000  0.000
  0.000  0.000  0.000  0.000  1.000
    occupations:
  0.200  0.000  0.000  0.000  0.000
  0.000  0.200  0.000  0.000  0.000
  0.000  0.000  0.200  0.000  0.000
  0.000  0.000  0.000  0.200  0.000
  0.000  0.000  0.000  0.000  0.200
atomic mag. moment =     4.000000
atom   57   Tr[ns(na)] (up, down, total) =   1.00000  5.00000  6.00000
   spin  1
    eigenvalues: 
  0.200  0.200  0.200  0.200  0.200
    eigenvectors:
  1.000  0.000  0.000  0.000  0.000
  0.000  1.000  0.000  0.000  0.000
  0.000  0.000  1.000  0.000  0.000
  0.000  0.000  0.000  1.000  0.000
  0.000  0.000  0.000  0.000  1.000
    occupations:
  0.200  0.000  0.000  0.000  0.000
  0.000  0.200  0.000  0.000  0.000
  0.000  0.000  0.200  0.000  0.000
  0.000  0.000  0.000  0.200  0.000
  0.000  0.000  0.000  0.000  0.200
   spin  2
    eigenvalues: 
  1.000  1.000  1.000  1.000  1.000
    eigenvectors:
  1.000  0.000  0.000  0.000  0.000
  0.000  1.000  0.000  0.000  0.000
  0.000  0.000  1.000  0.000  0.000
  0.000  0.000  0.000  1.000  0.000
  0.000  0.000  0.000  0.000  1.000
    occupations:
  1.000  0.000  0.000  0.000  0.000
  0.000  1.000  0.000  0.000  0.000
  0.000  0.000  1.000  0.000  0.000
  0.000  0.000  0.000  1.000  0.000
  0.000  0.000  0.000  0.000  1.000
atomic mag. moment =    -4.000000
atom   58   Tr[ns(na)] (up, down, total) =   5.00000  1.00000  6.00000
   spin  1
    eigenvalues: 
  1.000  1.000  1.000  1.000  1.000
    eigenvectors:
  1.000  0.000  0.000  0.000  0.000
  0.000  1.000  0.000  0.000  0.000
  0.000  0.000  1.000  0.000  0.000
  0.000  0.000  0.000  1.000  0.000
  0.000  0.000  0.000  0.000  1.000
    occupations:
  1.000  0.000  0.000  0.000  0.000
  0.000  1.000  0.000  0.000  0.000
  0.000  0.000  1.000  0.000  0.000
  0.000  0.000  0.000  1.000  0.000
  0.000  0.000  0.000  0.000  1.000
   spin  2
    eigenvalues: 
  0.200  0.200  0.200  0.200  0.200
    eigenvectors:
  1.000  0.000  0.000  0.000  0.000
  0.000  1.000  0.000  0.000  0.000
  0.000  0.000  1.000  0.000  0.000
  0.000  0.000  0.000  1.000  0.000
  0.000  0.000  0.000  0.000  1.000
    occupations:
  0.200  0.000  0.000  0.000  0.000
  0.000  0.200  0.000  0.000  0.000
  0.000  0.000  0.200  0.000  0.000
  0.000  0.000  0.000  0.200  0.000
  0.000  0.000  0.000  0.000  0.200
atomic mag. moment =     4.000000
atom   59   Tr[ns(na)] (up, down, total) =   1.00000  5.00000  6.00000
   spin  1
    eigenvalues: 
  0.200  0.200  0.200  0.200  0.200
    eigenvectors:
  1.000  0.000  0.000  0.000  0.000
  0.000  1.000  0.000  0.000  0.000
  0.000  0.000  1.000  0.000  0.000
  0.000  0.000  0.000  1.000  0.000
  0.000  0.000  0.000  0.000  1.000
    occupations:
  0.200  0.000  0.000  0.000  0.000
  0.000  0.200  0.000  0.000  0.000
  0.000  0.000  0.200  0.000  0.000
  0.000  0.000  0.000  0.200  0.000
  0.000  0.000  0.000  0.000  0.200
   spin  2
    eigenvalues: 
  1.000  1.000  1.000  1.000  1.000
    eigenvectors:
  1.000  0.000  0.000  0.000  0.000
  0.000  1.000  0.000  0.000  0.000
  0.000  0.000  1.000  0.000  0.000
  0.000  0.000  0.000  1.000  0.000
  0.000  0.000  0.000  0.000  1.000
    occupations:
  1.000  0.000  0.000  0.000  0.000
  0.000  1.000  0.000  0.000  0.000
  0.000  0.000  1.000  0.000  0.000
  0.000  0.000  0.000  1.000  0.000
  0.000  0.000  0.000  0.000  1.000
atomic mag. moment =    -4.000000
atom   60   Tr[ns(na)] (up, down, total) =   5.00000  1.00000  6.00000
   spin  1
    eigenvalues: 
  1.000  1.000  1.000  1.000  1.000
    eigenvectors:
  1.000  0.000  0.000  0.000  0.000
  0.000  1.000  0.000  0.000  0.000
  0.000  0.000  1.000  0.000  0.000
  0.000  0.000  0.000  1.000  0.000
  0.000  0.000  0.000  0.000  1.000
    occupations:
  1.000  0.000  0.000  0.000  0.000
  0.000  1.000  0.000  0.000  0.000
  0.000  0.000  1.000  0.000  0.000
  0.000  0.000  0.000  1.000  0.000
  0.000  0.000  0.000  0.000  1.000
   spin  2
    eigenvalues: 
  0.200  0.200  0.200  0.200  0.200
    eigenvectors:
  1.000  0.000  0.000  0.000  0.000
  0.000  1.000  0.000  0.000  0.000
  0.000  0.000  1.000  0.000  0.000
  0.000  0.000  0.000  1.000  0.000
  0.000  0.000  0.000  0.000  1.000
    occupations:
  0.200  0.000  0.000  0.000  0.000
  0.000  0.200  0.000  0.000  0.000
  0.000  0.000  0.200  0.000  0.000
  0.000  0.000  0.000  0.200  0.000
  0.000  0.000  0.000  0.000  0.200
atomic mag. moment =     4.000000
atom   79   Tr[ns(na)] (up, down, total) =   1.00000  5.00000  6.00000
   spin  1
    eigenvalues: 
  0.200  0.200  0.200  0.200  0.200
    eigenvectors:
  1.000  0.000  0.000  0.000  0.000
  0.000  1.000  0.000  0.000  0.000
  0.000  0.000  1.000  0.000  0.000
  0.000  0.000  0.000  1.000  0.000
  0.000  0.000  0.000  0.000  1.000
    occupations:
  0.200  0.000  0.000  0.000  0.000
  0.000  0.200  0.000  0.000  0.000
  0.000  0.000  0.200  0.000  0.000
  0.000  0.000  0.000  0.200  0.000
  0.000  0.000  0.000  0.000  0.200
   spin  2
    eigenvalues: 
  1.000  1.000  1.000  1.000  1.000
    eigenvectors:
  1.000  0.000  0.000  0.000  0.000
  0.000  1.000  0.000  0.000  0.000
  0.000  0.000  1.000  0.000  0.000
  0.000  0.000  0.000  1.000  0.000
  0.000  0.000  0.000  0.000  1.000
    occupations:
  1.000  0.000  0.000  0.000  0.000
  0.000  1.000  0.000  0.000  0.000
  0.000  0.000  1.000  0.000  0.000
  0.000  0.000  0.000  1.000  0.000
  0.000  0.000  0.000  0.000  1.000
atomic mag. moment =    -4.000000
atom   80   Tr[ns(na)] (up, down, total) =   5.00000  1.00000  6.00000
   spin  1
    eigenvalues: 
  1.000  1.000  1.000  1.000  1.000
    eigenvectors:
  1.000  0.000  0.000  0.000  0.000
  0.000  1.000  0.000  0.000  0.000
  0.000  0.000  1.000  0.000  0.000
  0.000  0.000  0.000  1.000  0.000
  0.000  0.000  0.000  0.000  1.000
    occupations:
  1.000  0.000  0.000  0.000  0.000
  0.000  1.000  0.000  0.000  0.000
  0.000  0.000  1.000  0.000  0.000
  0.000  0.000  0.000  1.000  0.000
  0.000  0.000  0.000  0.000  1.000
   spin  2
    eigenvalues: 
  0.200  0.200  0.200  0.200  0.200
    eigenvectors:
  1.000  0.000  0.000  0.000  0.000
  0.000  1.000  0.000  0.000  0.000
  0.000  0.000  1.000  0.000  0.000
  0.000  0.000  0.000  1.000  0.000
  0.000  0.000  0.000  0.000  1.000
    occupations:
  0.200  0.000  0.000  0.000  0.000
  0.000  0.200  0.000  0.000  0.000
  0.000  0.000  0.200  0.000  0.000
  0.000  0.000  0.000  0.200  0.000
  0.000  0.000  0.000  0.000  0.200
atomic mag. moment =     4.000000
atom   81   Tr[ns(na)] (up, down, total) =   1.00000  5.00000  6.00000
   spin  1
    eigenvalues: 
  0.200  0.200  0.200  0.200  0.200
    eigenvectors:
  1.000  0.000  0.000  0.000  0.000
  0.000  1.000  0.000  0.000  0.000
  0.000  0.000  1.000  0.000  0.000
  0.000  0.000  0.000  1.000  0.000
  0.000  0.000  0.000  0.000  1.000
    occupations:
  0.200  0.000  0.000  0.000  0.000
  0.000  0.200  0.000  0.000  0.000
  0.000  0.000  0.200  0.000  0.000
  0.000  0.000  0.000  0.200  0.000
  0.000  0.000  0.000  0.000  0.200
   spin  2
    eigenvalues: 
  1.000  1.000  1.000  1.000  1.000
    eigenvectors:
  1.000  0.000  0.000  0.000  0.000
  0.000  1.000  0.000  0.000  0.000
  0.000  0.000  1.000  0.000  0.000
  0.000  0.000  0.000  1.000  0.000
  0.000  0.000  0.000  0.000  1.000
    occupations:
  1.000  0.000  0.000  0.000  0.000
  0.000  1.000  0.000  0.000  0.000
  0.000  0.000  1.000  0.000  0.000
  0.000  0.000  0.000  1.000  0.000
  0.000  0.000  0.000  0.000  1.000
atomic mag. moment =    -4.000000
atom   82   Tr[ns(na)] (up, down, total) =   5.00000  1.00000  6.00000
   spin  1
    eigenvalues: 
  1.000  1.000  1.000  1.000  1.000
    eigenvectors:
  1.000  0.000  0.000  0.000  0.000
  0.000  1.000  0.000  0.000  0.000
  0.000  0.000  1.000  0.000  0.000
  0.000  0.000  0.000  1.000  0.000
  0.000  0.000  0.000  0.000  1.000
    occupations:
  1.000  0.000  0.000  0.000  0.000
  0.000  1.000  0.000  0.000  0.000
  0.000  0.000  1.000  0.000  0.000
  0.000  0.000  0.000  1.000  0.000
  0.000  0.000  0.000  0.000  1.000
   spin  2
    eigenvalues: 
  0.200  0.200  0.200  0.200  0.200
    eigenvectors:
  1.000  0.000  0.000  0.000  0.000
  0.000  1.000  0.000  0.000  0.000
  0.000  0.000  1.000  0.000  0.000
  0.000  0.000  0.000  1.000  0.000
  0.000  0.000  0.000  0.000  1.000
    occupations:
  0.200  0.000  0.000  0.000  0.000
  0.000  0.200  0.000  0.000  0.000
  0.000  0.000  0.200  0.000  0.000
  0.000  0.000  0.000  0.200  0.000
  0.000  0.000  0.000  0.000  0.200
atomic mag. moment =     4.000000
atom   83   Tr[ns(na)] (up, down, total) =   1.00000  5.00000  6.00000
   spin  1
    eigenvalues: 
  0.200  0.200  0.200  0.200  0.200
    eigenvectors:
  1.000  0.000  0.000  0.000  0.000
  0.000  1.000  0.000  0.000  0.000
  0.000  0.000  1.000  0.000  0.000
  0.000  0.000  0.000  1.000  0.000
  0.000  0.000  0.000  0.000  1.000
    occupations:
  0.200  0.000  0.000  0.000  0.000
  0.000  0.200  0.000  0.000  0.000
  0.000  0.000  0.200  0.000  0.000
  0.000  0.000  0.000  0.200  0.000
  0.000  0.000  0.000  0.000  0.200
   spin  2
    eigenvalues: 
  1.000  1.000  1.000  1.000  1.000
    eigenvectors:
  1.000  0.000  0.000  0.000  0.000
  0.000  1.000  0.000  0.000  0.000
  0.000  0.000  1.000  0.000  0.000
  0.000  0.000  0.000  1.000  0.000
  0.000  0.000  0.000  0.000  1.000
    occupations:
  1.000  0.000  0.000  0.000  0.000
  0.000  1.000  0.000  0.000  0.000
  0.000  0.000  1.000  0.000  0.000
  0.000  0.000  0.000  1.000  0.000
  0.000  0.000  0.000  0.000  1.000
atomic mag. moment =    -4.000000
atom   84   Tr[ns(na)] (up, down, total) =   5.00000  1.00000  6.00000
   spin  1
    eigenvalues: 
  1.000  1.000  1.000  1.000  1.000
    eigenvectors:
  1.000  0.000  0.000  0.000  0.000
  0.000  1.000  0.000  0.000  0.000
  0.000  0.000  1.000  0.000  0.000
  0.000  0.000  0.000  1.000  0.000
  0.000  0.000  0.000  0.000  1.000
    occupations:
  1.000  0.000  0.000  0.000  0.000
  0.000  1.000  0.000  0.000  0.000
  0.000  0.000  1.000  0.000  0.000
  0.000  0.000  0.000  1.000  0.000
  0.000  0.000  0.000  0.000  1.000
   spin  2
    eigenvalues: 
  0.200  0.200  0.200  0.200  0.200
    eigenvectors:
  1.000  0.000  0.000  0.000  0.000
  0.000  1.000  0.000  0.000  0.000
  0.000  0.000  1.000  0.000  0.000
  0.000  0.000  0.000  1.000  0.000
  0.000  0.000  0.000  0.000  1.000
    occupations:
  0.200  0.000  0.000  0.000  0.000
  0.000  0.200  0.000  0.000  0.000
  0.000  0.000  0.200  0.000  0.000
  0.000  0.000  0.000  0.200  0.000
  0.000  0.000  0.000  0.000  0.200
atomic mag. moment =     4.000000
atom   85   Tr[ns(na)] (up, down, total) =   1.00000  5.00000  6.00000
   spin  1
    eigenvalues: 
  0.200  0.200  0.200  0.200  0.200
    eigenvectors:
  1.000  0.000  0.000  0.000  0.000
  0.000  1.000  0.000  0.000  0.000
  0.000  0.000  1.000  0.000  0.000
  0.000  0.000  0.000  1.000  0.000
  0.000  0.000  0.000  0.000  1.000
    occupations:
  0.200  0.000  0.000  0.000  0.000
  0.000  0.200  0.000  0.000  0.000
  0.000  0.000  0.200  0.000  0.000
  0.000  0.000  0.000  0.200  0.000
  0.000  0.000  0.000  0.000  0.200
   spin  2
    eigenvalues: 
  1.000  1.000  1.000  1.000  1.000
    eigenvectors:
  1.000  0.000  0.000  0.000  0.000
  0.000  1.000  0.000  0.000  0.000
  0.000  0.000  1.000  0.000  0.000
  0.000  0.000  0.000  1.000  0.000
  0.000  0.000  0.000  0.000  1.000
    occupations:
  1.000  0.000  0.000  0.000  0.000
  0.000  1.000  0.000  0.000  0.000
  0.000  0.000  1.000  0.000  0.000
  0.000  0.000  0.000  1.000  0.000
  0.000  0.000  0.000  0.000  1.000
atomic mag. moment =    -4.000000
atom   86   Tr[ns(na)] (up, down, total) =   5.00000  1.00000  6.00000
   spin  1
    eigenvalues: 
  1.000  1.000  1.000  1.000  1.000
    eigenvectors:
  1.000  0.000  0.000  0.000  0.000
  0.000  1.000  0.000  0.000  0.000
  0.000  0.000  1.000  0.000  0.000
  0.000  0.000  0.000  1.000  0.000
  0.000  0.000  0.000  0.000  1.000
    occupations:
  1.000  0.000  0.000  0.000  0.000
  0.000  1.000  0.000  0.000  0.000
  0.000  0.000  1.000  0.000  0.000
  0.000  0.000  0.000  1.000  0.000
  0.000  0.000  0.000  0.000  1.000
   spin  2
    eigenvalues: 
  0.200  0.200  0.200  0.200  0.200
    eigenvectors:
  1.000  0.000  0.000  0.000  0.000
  0.000  1.000  0.000  0.000  0.000
  0.000  0.000  1.000  0.000  0.000
  0.000  0.000  0.000  1.000  0.000
  0.000  0.000  0.000  0.000  1.000
    occupations:
  0.200  0.000  0.000  0.000  0.000
  0.000  0.200  0.000  0.000  0.000
  0.000  0.000  0.200  0.000  0.000
  0.000  0.000  0.000  0.200  0.000
  0.000  0.000  0.000  0.000  0.200
atomic mag. moment =     4.000000
atom   87   Tr[ns(na)] (up, down, total) =   1.00000  5.00000  6.00000
   spin  1
    eigenvalues: 
  0.200  0.200  0.200  0.200  0.200
    eigenvectors:
  1.000  0.000  0.000  0.000  0.000
  0.000  1.000  0.000  0.000  0.000
  0.000  0.000  1.000  0.000  0.000
  0.000  0.000  0.000  1.000  0.000
  0.000  0.000  0.000  0.000  1.000
    occupations:
  0.200  0.000  0.000  0.000  0.000
  0.000  0.200  0.000  0.000  0.000
  0.000  0.000  0.200  0.000  0.000
  0.000  0.000  0.000  0.200  0.000
  0.000  0.000  0.000  0.000  0.200
   spin  2
    eigenvalues: 
  1.000  1.000  1.000  1.000  1.000
    eigenvectors:
  1.000  0.000  0.000  0.000  0.000
  0.000  1.000  0.000  0.000  0.000
  0.000  0.000  1.000  0.000  0.000
  0.000  0.000  0.000  1.000  0.000
  0.000  0.000  0.000  0.000  1.000
    occupations:
  1.000  0.000  0.000  0.000  0.000
  0.000  1.000  0.000  0.000  0.000
  0.000  0.000  1.000  0.000  0.000
  0.000  0.000  0.000  1.000  0.000
  0.000  0.000  0.000  0.000  1.000
atomic mag. moment =    -4.000000
atom   88   Tr[ns(na)] (up, down, total) =   5.00000  1.00000  6.00000
   spin  1
    eigenvalues: 
  1.000  1.000  1.000  1.000  1.000
    eigenvectors:
  1.000  0.000  0.000  0.000  0.000
  0.000  1.000  0.000  0.000  0.000
  0.000  0.000  1.000  0.000  0.000
  0.000  0.000  0.000  1.000  0.000
  0.000  0.000  0.000  0.000  1.000
    occupations:
  1.000  0.000  0.000  0.000  0.000
  0.000  1.000  0.000  0.000  0.000
  0.000  0.000  1.000  0.000  0.000
  0.000  0.000  0.000  1.000  0.000
  0.000  0.000  0.000  0.000  1.000
   spin  2
    eigenvalues: 
  0.200  0.200  0.200  0.200  0.200
    eigenvectors:
  1.000  0.000  0.000  0.000  0.000
  0.000  1.000  0.000  0.000  0.000
  0.000  0.000  1.000  0.000  0.000
  0.000  0.000  0.000  1.000  0.000
  0.000  0.000  0.000  0.000  1.000
    occupations:
  0.200  0.000  0.000  0.000  0.000
  0.000  0.200  0.000  0.000  0.000
  0.000  0.000  0.200  0.000  0.000
  0.000  0.000  0.000  0.200  0.000
  0.000  0.000  0.000  0.000  0.200
atomic mag. moment =     4.000000
atom   89   Tr[ns(na)] (up, down, total) =   1.00000  5.00000  6.00000
   spin  1
    eigenvalues: 
  0.200  0.200  0.200  0.200  0.200
    eigenvectors:
  1.000  0.000  0.000  0.000  0.000
  0.000  1.000  0.000  0.000  0.000
  0.000  0.000  1.000  0.000  0.000
  0.000  0.000  0.000  1.000  0.000
  0.000  0.000  0.000  0.000  1.000
    occupations:
  0.200  0.000  0.000  0.000  0.000
  0.000  0.200  0.000  0.000  0.000
  0.000  0.000  0.200  0.000  0.000
  0.000  0.000  0.000  0.200  0.000
  0.000  0.000  0.000  0.000  0.200
   spin  2
    eigenvalues: 
  1.000  1.000  1.000  1.000  1.000
    eigenvectors:
  1.000  0.000  0.000  0.000  0.000
  0.000  1.000  0.000  0.000  0.000
  0.000  0.000  1.000  0.000  0.000
  0.000  0.000  0.000  1.000  0.000
  0.000  0.000  0.000  0.000  1.000
    occupations:
  1.000  0.000  0.000  0.000  0.000
  0.000  1.000  0.000  0.000  0.000
  0.000  0.000  1.000  0.000  0.000
  0.000  0.000  0.000  1.000  0.000
  0.000  0.000  0.000  0.000  1.000
atomic mag. moment =    -4.000000
atom   90   Tr[ns(na)] (up, down, total) =   5.00000  1.00000  6.00000
   spin  1
    eigenvalues: 
  1.000  1.000  1.000  1.000  1.000
    eigenvectors:
  1.000  0.000  0.000  0.000  0.000
  0.000  1.000  0.000  0.000  0.000
  0.000  0.000  1.000  0.000  0.000
  0.000  0.000  0.000  1.000  0.000
  0.000  0.000  0.000  0.000  1.000
    occupations:
  1.000  0.000  0.000  0.000  0.000
  0.000  1.000  0.000  0.000  0.000
  0.000  0.000  1.000  0.000  0.000
  0.000  0.000  0.000  1.000  0.000
  0.000  0.000  0.000  0.000  1.000
   spin  2
    eigenvalues: 
  0.200  0.200  0.200  0.200  0.200
    eigenvectors:
  1.000  0.000  0.000  0.000  0.000
  0.000  1.000  0.000  0.000  0.000
  0.000  0.000  1.000  0.000  0.000
  0.000  0.000  0.000  1.000  0.000
  0.000  0.000  0.000  0.000  1.000
    occupations:
  0.200  0.000  0.000  0.000  0.000
  0.000  0.200  0.000  0.000  0.000
  0.000  0.000  0.200  0.000  0.000
  0.000  0.000  0.000  0.200  0.000
  0.000  0.000  0.000  0.000  0.200
atomic mag. moment =     4.000000
atom  109   Tr[ns(na)] (up, down, total) =   1.00000  5.00000  6.00000
   spin  1
    eigenvalues: 
  0.200  0.200  0.200  0.200  0.200
    eigenvectors:
  1.000  0.000  0.000  0.000  0.000
  0.000  1.000  0.000  0.000  0.000
  0.000  0.000  1.000  0.000  0.000
  0.000  0.000  0.000  1.000  0.000
  0.000  0.000  0.000  0.000  1.000
    occupations:
  0.200  0.000  0.000  0.000  0.000
  0.000  0.200  0.000  0.000  0.000
  0.000  0.000  0.200  0.000  0.000
  0.000  0.000  0.000  0.200  0.000
  0.000  0.000  0.000  0.000  0.200
   spin  2
    eigenvalues: 
  1.000  1.000  1.000  1.000  1.000
    eigenvectors:
  1.000  0.000  0.000  0.000  0.000
  0.000  1.000  0.000  0.000  0.000
  0.000  0.000  1.000  0.000  0.000
  0.000  0.000  0.000  1.000  0.000
  0.000  0.000  0.000  0.000  1.000
    occupations:
  1.000  0.000  0.000  0.000  0.000
  0.000  1.000  0.000  0.000  0.000
  0.000  0.000  1.000  0.000  0.000
  0.000  0.000  0.000  1.000  0.000
  0.000  0.000  0.000  0.000  1.000
atomic mag. moment =    -4.000000
atom  110   Tr[ns(na)] (up, down, total) =   5.00000  1.00000  6.00000
   spin  1
    eigenvalues: 
  1.000  1.000  1.000  1.000  1.000
    eigenvectors:
  1.000  0.000  0.000  0.000  0.000
  0.000  1.000  0.000  0.000  0.000
  0.000  0.000  1.000  0.000  0.000
  0.000  0.000  0.000  1.000  0.000
  0.000  0.000  0.000  0.000  1.000
    occupations:
  1.000  0.000  0.000  0.000  0.000
  0.000  1.000  0.000  0.000  0.000
  0.000  0.000  1.000  0.000  0.000
  0.000  0.000  0.000  1.000  0.000
  0.000  0.000  0.000  0.000  1.000
   spin  2
    eigenvalues: 
  0.200  0.200  0.200  0.200  0.200
    eigenvectors:
  1.000  0.000  0.000  0.000  0.000
  0.000  1.000  0.000  0.000  0.000
  0.000  0.000  1.000  0.000  0.000
  0.000  0.000  0.000  1.000  0.000
  0.000  0.000  0.000  0.000  1.000
    occupations:
  0.200  0.000  0.000  0.000  0.000
  0.000  0.200  0.000  0.000  0.000
  0.000  0.000  0.200  0.000  0.000
  0.000  0.000  0.000  0.200  0.000
  0.000  0.000  0.000  0.000  0.200
atomic mag. moment =     4.000000
atom  111   Tr[ns(na)] (up, down, total) =   1.00000  5.00000  6.00000
   spin  1
    eigenvalues: 
  0.200  0.200  0.200  0.200  0.200
    eigenvectors:
  1.000  0.000  0.000  0.000  0.000
  0.000  1.000  0.000  0.000  0.000
  0.000  0.000  1.000  0.000  0.000
  0.000  0.000  0.000  1.000  0.000
  0.000  0.000  0.000  0.000  1.000
    occupations:
  0.200  0.000  0.000  0.000  0.000
  0.000  0.200  0.000  0.000  0.000
  0.000  0.000  0.200  0.000  0.000
  0.000  0.000  0.000  0.200  0.000
  0.000  0.000  0.000  0.000  0.200
   spin  2
    eigenvalues: 
  1.000  1.000  1.000  1.000  1.000
    eigenvectors:
  1.000  0.000  0.000  0.000  0.000
  0.000  1.000  0.000  0.000  0.000
  0.000  0.000  1.000  0.000  0.000
  0.000  0.000  0.000  1.000  0.000
  0.000  0.000  0.000  0.000  1.000
    occupations:
  1.000  0.000  0.000  0.000  0.000
  0.000  1.000  0.000  0.000  0.000
  0.000  0.000  1.000  0.000  0.000
  0.000  0.000  0.000  1.000  0.000
  0.000  0.000  0.000  0.000  1.000
atomic mag. moment =    -4.000000
atom  112   Tr[ns(na)] (up, down, total) =   5.00000  1.00000  6.00000
   spin  1
    eigenvalues: 
  1.000  1.000  1.000  1.000  1.000
    eigenvectors:
  1.000  0.000  0.000  0.000  0.000
  0.000  1.000  0.000  0.000  0.000
  0.000  0.000  1.000  0.000  0.000
  0.000  0.000  0.000  1.000  0.000
  0.000  0.000  0.000  0.000  1.000
    occupations:
  1.000  0.000  0.000  0.000  0.000
  0.000  1.000  0.000  0.000  0.000
  0.000  0.000  1.000  0.000  0.000
  0.000  0.000  0.000  1.000  0.000
  0.000  0.000  0.000  0.000  1.000
   spin  2
    eigenvalues: 
  0.200  0.200  0.200  0.200  0.200
    eigenvectors:
  1.000  0.000  0.000  0.000  0.000
  0.000  1.000  0.000  0.000  0.000
  0.000  0.000  1.000  0.000  0.000
  0.000  0.000  0.000  1.000  0.000
  0.000  0.000  0.000  0.000  1.000
    occupations:
  0.200  0.000  0.000  0.000  0.000
  0.000  0.200  0.000  0.000  0.000
  0.000  0.000  0.200  0.000  0.000
  0.000  0.000  0.000  0.200  0.000
  0.000  0.000  0.000  0.000  0.200
atomic mag. moment =     4.000000
atom  113   Tr[ns(na)] (up, down, total) =   1.00000  5.00000  6.00000
   spin  1
    eigenvalues: 
  0.200  0.200  0.200  0.200  0.200
    eigenvectors:
  1.000  0.000  0.000  0.000  0.000
  0.000  1.000  0.000  0.000  0.000
  0.000  0.000  1.000  0.000  0.000
  0.000  0.000  0.000  1.000  0.000
  0.000  0.000  0.000  0.000  1.000
    occupations:
  0.200  0.000  0.000  0.000  0.000
  0.000  0.200  0.000  0.000  0.000
  0.000  0.000  0.200  0.000  0.000
  0.000  0.000  0.000  0.200  0.000
  0.000  0.000  0.000  0.000  0.200
   spin  2
    eigenvalues: 
  1.000  1.000  1.000  1.000  1.000
    eigenvectors:
  1.000  0.000  0.000  0.000  0.000
  0.000  1.000  0.000  0.000  0.000
  0.000  0.000  1.000  0.000  0.000
  0.000  0.000  0.000  1.000  0.000
  0.000  0.000  0.000  0.000  1.000
    occupations:
  1.000  0.000  0.000  0.000  0.000
  0.000  1.000  0.000  0.000  0.000
  0.000  0.000  1.000  0.000  0.000
  0.000  0.000  0.000  1.000  0.000
  0.000  0.000  0.000  0.000  1.000
atomic mag. moment =    -4.000000
atom  114   Tr[ns(na)] (up, down, total) =   5.00000  1.00000  6.00000
   spin  1
    eigenvalues: 
  1.000  1.000  1.000  1.000  1.000
    eigenvectors:
  1.000  0.000  0.000  0.000  0.000
  0.000  1.000  0.000  0.000  0.000
  0.000  0.000  1.000  0.000  0.000
  0.000  0.000  0.000  1.000  0.000
  0.000  0.000  0.000  0.000  1.000
    occupations:
  1.000  0.000  0.000  0.000  0.000
  0.000  1.000  0.000  0.000  0.000
  0.000  0.000  1.000  0.000  0.000
  0.000  0.000  0.000  1.000  0.000
  0.000  0.000  0.000  0.000  1.000
   spin  2
    eigenvalues: 
  0.200  0.200  0.200  0.200  0.200
    eigenvectors:
  1.000  0.000  0.000  0.000  0.000
  0.000  1.000  0.000  0.000  0.000
  0.000  0.000  1.000  0.000  0.000
  0.000  0.000  0.000  1.000  0.000
  0.000  0.000  0.000  0.000  1.000
    occupations:
  0.200  0.000  0.000  0.000  0.000
  0.000  0.200  0.000  0.000  0.000
  0.000  0.000  0.200  0.000  0.000
  0.000  0.000  0.000  0.200  0.000
  0.000  0.000  0.000  0.000  0.200
atomic mag. moment =     4.000000
atom  115   Tr[ns(na)] (up, down, total) =   1.00000  5.00000  6.00000
   spin  1
    eigenvalues: 
  0.200  0.200  0.200  0.200  0.200
    eigenvectors:
  1.000  0.000  0.000  0.000  0.000
  0.000  1.000  0.000  0.000  0.000
  0.000  0.000  1.000  0.000  0.000
  0.000  0.000  0.000  1.000  0.000
  0.000  0.000  0.000  0.000  1.000
    occupations:
  0.200  0.000  0.000  0.000  0.000
  0.000  0.200  0.000  0.000  0.000
  0.000  0.000  0.200  0.000  0.000
  0.000  0.000  0.000  0.200  0.000
  0.000  0.000  0.000  0.000  0.200
   spin  2
    eigenvalues: 
  1.000  1.000  1.000  1.000  1.000
    eigenvectors:
  1.000  0.000  0.000  0.000  0.000
  0.000  1.000  0.000  0.000  0.000
  0.000  0.000  1.000  0.000  0.000
  0.000  0.000  0.000  1.000  0.000
  0.000  0.000  0.000  0.000  1.000
    occupations:
  1.000  0.000  0.000  0.000  0.000
  0.000  1.000  0.000  0.000  0.000
  0.000  0.000  1.000  0.000  0.000
  0.000  0.000  0.000  1.000  0.000
  0.000  0.000  0.000  0.000  1.000
atomic mag. moment =    -4.000000
atom  116   Tr[ns(na)] (up, down, total) =   5.00000  1.00000  6.00000
   spin  1
    eigenvalues: 
  1.000  1.000  1.000  1.000  1.000
    eigenvectors:
  1.000  0.000  0.000  0.000  0.000
  0.000  1.000  0.000  0.000  0.000
  0.000  0.000  1.000  0.000  0.000
  0.000  0.000  0.000  1.000  0.000
  0.000  0.000  0.000  0.000  1.000
    occupations:
  1.000  0.000  0.000  0.000  0.000
  0.000  1.000  0.000  0.000  0.000
  0.000  0.000  1.000  0.000  0.000
  0.000  0.000  0.000  1.000  0.000
  0.000  0.000  0.000  0.000  1.000
   spin  2
    eigenvalues: 
  0.200  0.200  0.200  0.200  0.200
    eigenvectors:
  1.000  0.000  0.000  0.000  0.000
  0.000  1.000  0.000  0.000  0.000
  0.000  0.000  1.000  0.000  0.000
  0.000  0.000  0.000  1.000  0.000
  0.000  0.000  0.000  0.000  1.000
    occupations:
  0.200  0.000  0.000  0.000  0.000
  0.000  0.200  0.000  0.000  0.000
  0.000  0.000  0.200  0.000  0.000
  0.000  0.000  0.000  0.200  0.000
  0.000  0.000  0.000  0.000  0.200
atomic mag. moment =     4.000000
atom  117   Tr[ns(na)] (up, down, total) =   1.00000  5.00000  6.00000
   spin  1
    eigenvalues: 
  0.200  0.200  0.200  0.200  0.200
    eigenvectors:
  1.000  0.000  0.000  0.000  0.000
  0.000  1.000  0.000  0.000  0.000
  0.000  0.000  1.000  0.000  0.000
  0.000  0.000  0.000  1.000  0.000
  0.000  0.000  0.000  0.000  1.000
    occupations:
  0.200  0.000  0.000  0.000  0.000
  0.000  0.200  0.000  0.000  0.000
  0.000  0.000  0.200  0.000  0.000
  0.000  0.000  0.000  0.200  0.000
  0.000  0.000  0.000  0.000  0.200
   spin  2
    eigenvalues: 
  1.000  1.000  1.000  1.000  1.000
    eigenvectors:
  1.000  0.000  0.000  0.000  0.000
  0.000  1.000  0.000  0.000  0.000
  0.000  0.000  1.000  0.000  0.000
  0.000  0.000  0.000  1.000  0.000
  0.000  0.000  0.000  0.000  1.000
    occupations:
  1.000  0.000  0.000  0.000  0.000
  0.000  1.000  0.000  0.000  0.000
  0.000  0.000  1.000  0.000  0.000
  0.000  0.000  0.000  1.000  0.000
  0.000  0.000  0.000  0.000  1.000
atomic mag. moment =    -4.000000
atom  118   Tr[ns(na)] (up, down, total) =   5.00000  1.00000  6.00000
   spin  1
    eigenvalues: 
  1.000  1.000  1.000  1.000  1.000
    eigenvectors:
  1.000  0.000  0.000  0.000  0.000
  0.000  1.000  0.000  0.000  0.000
  0.000  0.000  1.000  0.000  0.000
  0.000  0.000  0.000  1.000  0.000
  0.000  0.000  0.000  0.000  1.000
    occupations:
  1.000  0.000  0.000  0.000  0.000
  0.000  1.000  0.000  0.000  0.000
  0.000  0.000  1.000  0.000  0.000
  0.000  0.000  0.000  1.000  0.000
  0.000  0.000  0.000  0.000  1.000
   spin  2
    eigenvalues: 
  0.200  0.200  0.200  0.200  0.200
    eigenvectors:
  1.000  0.000  0.000  0.000  0.000
  0.000  1.000  0.000  0.000  0.000
  0.000  0.000  1.000  0.000  0.000
  0.000  0.000  0.000  1.000  0.000
  0.000  0.000  0.000  0.000  1.000
    occupations:
  0.200  0.000  0.000  0.000  0.000
  0.000  0.200  0.000  0.000  0.000
  0.000  0.000  0.200  0.000  0.000
  0.000  0.000  0.000  0.200  0.000
  0.000  0.000  0.000  0.000  0.200
atomic mag. moment =     4.000000
atom  119   Tr[ns(na)] (up, down, total) =   1.00000  5.00000  6.00000
   spin  1
    eigenvalues: 
  0.200  0.200  0.200  0.200  0.200
    eigenvectors:
  1.000  0.000  0.000  0.000  0.000
  0.000  1.000  0.000  0.000  0.000
  0.000  0.000  1.000  0.000  0.000
  0.000  0.000  0.000  1.000  0.000
  0.000  0.000  0.000  0.000  1.000
    occupations:
  0.200  0.000  0.000  0.000  0.000
  0.000  0.200  0.000  0.000  0.000
  0.000  0.000  0.200  0.000  0.000
  0.000  0.000  0.000  0.200  0.000
  0.000  0.000  0.000  0.000  0.200
   spin  2
    eigenvalues: 
  1.000  1.000  1.000  1.000  1.000
    eigenvectors:
  1.000  0.000  0.000  0.000  0.000
  0.000  1.000  0.000  0.000  0.000
  0.000  0.000  1.000  0.000  0.000
  0.000  0.000  0.000  1.000  0.000
  0.000  0.000  0.000  0.000  1.000
    occupations:
  1.000  0.000  0.000  0.000  0.000
  0.000  1.000  0.000  0.000  0.000
  0.000  0.000  1.000  0.000  0.000
  0.000  0.000  0.000  1.000  0.000
  0.000  0.000  0.000  0.000  1.000
atomic mag. moment =    -4.000000
atom  120   Tr[ns(na)] (up, down, total) =   5.00000  1.00000  6.00000
   spin  1
    eigenvalues: 
  1.000  1.000  1.000  1.000  1.000
    eigenvectors:
  1.000  0.000  0.000  0.000  0.000
  0.000  1.000  0.000  0.000  0.000
  0.000  0.000  1.000  0.000  0.000
  0.000  0.000  0.000  1.000  0.000
  0.000  0.000  0.000  0.000  1.000
    occupations:
  1.000  0.000  0.000  0.000  0.000
  0.000  1.000  0.000  0.000  0.000
  0.000  0.000  1.000  0.000  0.000
  0.000  0.000  0.000  1.000  0.000
  0.000  0.000  0.000  0.000  1.000
   spin  2
    eigenvalues: 
  0.200  0.200  0.200  0.200  0.200
    eigenvectors:
  1.000  0.000  0.000  0.000  0.000
  0.000  1.000  0.000  0.000  0.000
  0.000  0.000  1.000  0.000  0.000
  0.000  0.000  0.000  1.000  0.000
  0.000  0.000  0.000  0.000  1.000
    occupations:
  0.200  0.000  0.000  0.000  0.000
  0.000  0.200  0.000  0.000  0.000
  0.000  0.000  0.200  0.000  0.000
  0.000  0.000  0.000  0.200  0.000
  0.000  0.000  0.000  0.000  0.200
atomic mag. moment =     4.000000
N of occupied +U levels =  288.000000
 --- exit write_ns ---
 Atomic wfc used for LDA+U Projector are NOT orthogonalized
     Starting wfc are  912 randomized atomic wfcs

     total cpu time spent up to now is       38.1 secs

     per-process dynamical memory:   426.1 Mb

     Self-consistent Calculation

     iteration #  1     ecut=    40.00 Ry     beta=0.30
     Davidson diagonalization with overlap
     ethr =  1.00E-02,  avg # of iterations =  3.0
 --- enter write_ns ---
 LDA+U parameters:
U( 2)     =  4.30000000
alpha( 2) =  0.00000000
U( 3)     =  4.30000000
alpha( 3) =  0.00000000
atom   19   Tr[ns(na)] (up, down, total) =   0.32345  4.95843  5.28188
   spin  1
    eigenvalues: 
  0.037  0.037  0.038  0.105  0.105
    eigenvectors:
  0.000  0.000  1.000  0.000  0.000
  0.355  0.051  0.000  0.400  0.193
  0.051  0.355  0.000  0.193  0.400
  0.564  0.029  0.000  0.325  0.082
  0.029  0.564  0.000  0.082  0.324
    occupations:
  0.038 -0.000 -0.000 -0.000  0.000
 -0.000  0.078 -0.000  0.033  0.005
 -0.000 -0.000  0.078  0.005 -0.033
 -0.000  0.033  0.005  0.065  0.000
  0.000  0.005 -0.033  0.000  0.065
   spin  2
    eigenvalues: 
  0.990  0.990  0.990  0.994  0.994
    eigenvectors:
  1.000  0.000  0.000  0.000  0.000
  0.000  0.106  0.086  0.658  0.150
  0.000  0.086  0.106  0.150  0.658
  0.000  0.532  0.276  0.171  0.021
  0.000  0.276  0.532  0.021  0.172
    occupations:
  0.990 -0.000 -0.000 -0.000 -0.000
 -0.000  0.994 -0.000  0.002  0.000
 -0.000 -0.000  0.994  0.000 -0.002
 -0.000  0.002  0.000  0.991  0.000
 -0.000  0.000 -0.002  0.000  0.991
atomic mag. moment =    -4.634980
atom   20   Tr[ns(na)] (up, down, total) =   4.95843  0.32351  5.28194
   spin  1
    eigenvalues: 
  0.990  0.990  0.990  0.994  0.994
    eigenvectors:
  1.000  0.000  0.000  0.000  0.000
  0.000  0.050  0.142  0.097  0.711
  0.000  0.142  0.050  0.711  0.097
  0.000  0.136  0.672  0.011  0.181
  0.000  0.672  0.136  0.181  0.011
    occupations:
  0.990 -0.000 -0.000 -0.000 -0.000
 -0.000  0.994 -0.000 -0.002  0.000
 -0.000 -0.000  0.994  0.000  0.002
 -0.000 -0.002  0.000  0.991  0.000
 -0.000  0.000  0.002  0.000  0.991
   spin  2
    eigenvalues: 
  0.037  0.037  0.038  0.105  0.105
    eigenvectors:
  0.000  0.000  1.000  0.000  0.000
  0.103  0.304  0.000  0.122  0.471
  0.304  0.103  0.000  0.471  0.122
  0.084  0.509  0.000  0.043  0.364
  0.509  0.084  0.000  0.364  0.043
    occupations:
  0.038  0.000 -0.000 -0.000 -0.000
  0.000  0.078  0.000 -0.033  0.005
 -0.000  0.000  0.078  0.005  0.033
 -0.000 -0.033  0.005  0.065  0.000
 -0.000  0.005  0.033  0.000  0.065
atomic mag. moment =     4.634921
atom   21   Tr[ns(na)] (up, down, total) =   0.32345  4.95843  5.28188
   spin  1
    eigenvalues: 
  0.037  0.037  0.038  0.105  0.105
    eigenvectors:
  0.000  0.000  1.000  0.000  0.000
  0.240  0.167  0.000  0.486  0.108
  0.167  0.240  0.000  0.108  0.486
  0.266  0.327  0.000  0.284  0.123
  0.327  0.266  0.000  0.123  0.284
    occupations:
  0.038  0.000 -0.000  0.000  0.000
  0.000  0.078  0.000  0.033  0.005
 -0.000  0.000  0.078  0.005 -0.033
  0.000  0.033  0.005  0.065 -0.000
  0.000  0.005 -0.033 -0.000  0.065
   spin  2
    eigenvalues: 
  0.990  0.990  0.990  0.994  0.994
    eigenvectors:
  1.000  0.000  0.000  0.000  0.000
  0.000  0.138  0.055  0.370  0.438
  0.000  0.055  0.138  0.438  0.369
  0.000  0.495  0.313  0.067  0.125
  0.000  0.313  0.495  0.125  0.068
    occupations:
  0.990  0.000 -0.000 -0.000 -0.000
  0.000  0.994  0.000  0.002  0.000
 -0.000  0.000  0.994  0.000 -0.002
 -0.000  0.002  0.000  0.991 -0.000
 -0.000  0.000 -0.002 -0.000  0.991
atomic mag. moment =    -4.634980
atom   22   Tr[ns(na)] (up, down, total) =   4.95843  0.32351  5.28194
   spin  1
    eigenvalues: 
  0.990  0.990  0.990  0.994  0.994
    eigenvectors:
  1.000  0.000  0.000  0.000  0.000
  0.000  0.050  0.142  0.097  0.711
  0.000  0.142  0.050  0.711  0.097
  0.000  0.136  0.672  0.011  0.181
  0.000  0.672  0.136  0.181  0.011
    occupations:
  0.990 -0.000 -0.000 -0.000 -0.000
 -0.000  0.994 -0.000 -0.002  0.000
 -0.000 -0.000  0.994  0.000  0.002
 -0.000 -0.002  0.000  0.991  0.000
 -0.000  0.000  0.002  0.000  0.991
   spin  2
    eigenvalues: 
  0.037  0.037  0.038  0.105  0.105
    eigenvectors:
  0.000  0.000  1.000  0.000  0.000
  0.103  0.304  0.000  0.122  0.471
  0.304  0.103  0.000  0.471  0.122
  0.084  0.509  0.000  0.043  0.364
  0.509  0.084  0.000  0.364  0.043
    occupations:
  0.038  0.000 -0.000 -0.000 -0.000
  0.000  0.078  0.000 -0.033  0.005
 -0.000  0.000  0.078  0.005  0.033
 -0.000 -0.033  0.005  0.065  0.000
 -0.000  0.005  0.033  0.000  0.065
atomic mag. moment =     4.634921
atom   23   Tr[ns(na)] (up, down, total) =   0.32349  4.95842  5.28191
   spin  1
    eigenvalues: 
  0.037  0.037  0.038  0.105  0.105
    eigenvectors:
  0.000  0.000  1.000  0.000  0.000
  0.032  0.374  0.000  0.058  0.535
  0.374  0.032  0.000  0.535  0.058
  0.102  0.492  0.000  0.080  0.326
  0.492  0.102  0.000  0.326  0.080
    occupations:
  0.038 -0.000 -0.000 -0.000 -0.000
 -0.000  0.078 -0.000  0.033  0.005
 -0.000 -0.000  0.078  0.005 -0.033
 -0.000  0.033  0.005  0.065  0.000
 -0.000  0.005 -0.033  0.000  0.065
   spin  2
    eigenvalues: 
  0.990  0.990  0.990  0.994  0.994
    eigenvectors:
  1.000  0.000  0.000  0.000  0.000
  0.000  0.020  0.172  0.085  0.723
  0.000  0.172  0.020  0.723  0.085
  0.000  0.144  0.664  0.035  0.158
  0.000  0.664  0.144  0.158  0.035
    occupations:
  0.990 -0.000 -0.000 -0.000 -0.000
 -0.000  0.994 -0.000  0.002  0.000
 -0.000 -0.000  0.994  0.000 -0.002
 -0.000  0.002  0.000  0.991  0.000
 -0.000  0.000 -0.002  0.000  0.991
atomic mag. moment =    -4.634931
atom   24   Tr[ns(na)] (up, down, total) =   4.95843  0.32338  5.28181
   spin  1
    eigenvalues: 
  0.990  0.990  0.990  0.994  0.994
    eigenvectors:
  1.000  0.000  0.000  0.000  0.000
  0.000  0.039  0.154  0.002  0.806
  0.000  0.153  0.038  0.806  0.002
  0.000  0.097  0.710  0.005  0.187
  0.000  0.710  0.098  0.187  0.005
    occupations:
  0.990 -0.000  0.000 -0.000  0.000
 -0.000  0.994 -0.000 -0.002  0.000
  0.000 -0.000  0.994  0.000  0.002
 -0.000 -0.002  0.000  0.991  0.000
  0.000  0.000  0.002  0.000  0.991
   spin  2
    eigenvalues: 
  0.037  0.037  0.038  0.105  0.105
    eigenvectors:
  0.000  0.000  1.000  0.000  0.000
  0.003  0.404  0.000  0.501  0.092
  0.404  0.003  0.000  0.092  0.501
  0.029  0.564  0.000  0.297  0.110
  0.564  0.029  0.000  0.110  0.297
    occupations:
  0.038  0.000  0.000 -0.000  0.000
  0.000  0.078 -0.000 -0.033  0.005
  0.000 -0.000  0.078  0.005  0.033
 -0.000 -0.033  0.005  0.065 -0.000
  0.000  0.005  0.033 -0.000  0.065
atomic mag. moment =     4.635054
atom   25   Tr[ns(na)] (up, down, total) =   0.32341  4.95843  5.28184
   spin  1
    eigenvalues: 
  0.037  0.037  0.038  0.105  0.105
    eigenvectors:
  0.000  0.000  1.000  0.000  0.000
  0.046  0.361  0.000  0.206  0.387
  0.361  0.046  0.000  0.387  0.206
  0.128  0.465  0.000  0.198  0.209
  0.465  0.128  0.000  0.209  0.198
    occupations:
  0.038 -0.000  0.000 -0.000 -0.000
 -0.000  0.078 -0.000  0.033  0.005
  0.000 -0.000  0.078  0.005 -0.033
 -0.000  0.033  0.005  0.065  0.000
 -0.000  0.005 -0.033  0.000  0.065
   spin  2
    eigenvalues: 
  0.990  0.990  0.990  0.994  0.994
    eigenvectors:
  1.000  0.000  0.000  0.000  0.000
  0.000  0.034  0.158  0.763  0.045
  0.000  0.158  0.034  0.045  0.763
  0.000  0.215  0.593  0.170  0.022
  0.000  0.593  0.215  0.022  0.170
    occupations:
  0.990  0.000 -0.000  0.000  0.000
  0.000  0.994  0.000  0.002  0.000
 -0.000  0.000  0.994  0.000 -0.002
  0.000  0.002  0.000  0.991  0.000
  0.000  0.000 -0.002  0.000  0.991
atomic mag. moment =    -4.635017
atom   26   Tr[ns(na)] (up, down, total) =   4.95844  0.32348  5.28192
   spin  1
    eigenvalues: 
  0.990  0.990  0.990  0.994  0.994
    eigenvectors:
  1.000  0.000  0.000  0.000  0.000
  0.000  0.175  0.017  0.397  0.411
  0.000  0.017  0.175  0.411  0.397
  0.000  0.680  0.128  0.074  0.118
  0.000  0.128  0.680  0.118  0.074
    occupations:
  0.990  0.000 -0.000 -0.000  0.000
  0.000  0.994 -0.000 -0.002  0.000
 -0.000 -0.000  0.994  0.000  0.002
 -0.000 -0.002  0.000  0.991  0.000
  0.000  0.000  0.002  0.000  0.991
   spin  2
    eigenvalues: 
  0.037  0.037  0.038  0.105  0.105
    eigenvectors:
  0.000  0.000  1.000  0.000  0.000
  0.369  0.038  0.000  0.507  0.087
  0.038  0.369  0.000  0.087  0.507
  0.480  0.113  0.000  0.302  0.105
  0.113  0.480  0.000  0.105  0.302
    occupations:
  0.038  0.000  0.000 -0.000  0.000
  0.000  0.078 -0.000 -0.033  0.005
  0.000 -0.000  0.078  0.005  0.033
 -0.000 -0.033  0.005  0.065  0.000
  0.000  0.005  0.033  0.000  0.065
atomic mag. moment =     4.634965
atom   27   Tr[ns(na)] (up, down, total) =   0.32341  4.95843  5.28184
   spin  1
    eigenvalues: 
  0.037  0.037  0.038  0.105  0.105
    eigenvectors:
  0.000  0.000  1.000  0.000  0.000
  0.393  0.014  0.000  0.586  0.007
  0.014  0.393  0.000  0.007  0.587
  0.592  0.001  0.000  0.382  0.025
  0.001  0.592  0.000  0.025  0.382
    occupations:
  0.038  0.000 -0.000  0.000  0.000
  0.000  0.078  0.000  0.033  0.005
 -0.000  0.000  0.078  0.005 -0.033
  0.000  0.033  0.005  0.065 -0.000
  0.000  0.005 -0.033 -0.000  0.065
   spin  2
    eigenvalues: 
  0.990  0.990  0.990  0.994  0.994
    eigenvectors:
  1.000  0.000  0.000  0.000  0.000
  0.000  0.189  0.003  0.035  0.772
  0.000  0.003  0.189  0.772  0.036
  0.000  0.807  0.001  0.002  0.190
  0.000  0.001  0.807  0.190  0.002
    occupations:
  0.990 -0.000  0.000 -0.000 -0.000
 -0.000  0.994  0.000  0.002  0.000
  0.000  0.000  0.994  0.000 -0.002
 -0.000  0.002  0.000  0.991  0.000
 -0.000  0.000 -0.002  0.000  0.991
atomic mag. moment =    -4.635017
atom   28   Tr[ns(na)] (up, down, total) =   4.95844  0.32348  5.28192
   spin  1
    eigenvalues: 
  0.990  0.990  0.990  0.994  0.994
    eigenvectors:
  1.000  0.000  0.000  0.000  0.000
  0.000  0.028  0.164  0.036  0.772
  0.000  0.164  0.028  0.772  0.036
  0.000  0.064  0.744  0.019  0.173
  0.000  0.744  0.064  0.173  0.019
    occupations:
  0.990 -0.000 -0.000 -0.000 -0.000
 -0.000  0.994  0.000 -0.002  0.000
 -0.000  0.000  0.994  0.000  0.002
 -0.000 -0.002  0.000  0.991  0.000
 -0.000  0.000  0.002  0.000  0.991
   spin  2
    eigenvalues: 
  0.037  0.037  0.038  0.105  0.105
    eigenvectors:
  0.000  0.000  1.000  0.000  0.000
  0.021  0.385  0.000  0.010  0.583
  0.385  0.021  0.000  0.583  0.010
  0.005  0.588  0.000  0.000  0.407
  0.588  0.005  0.000  0.407  0.000
    occupations:
  0.038 -0.000 -0.000  0.000 -0.000
 -0.000  0.078 -0.000 -0.033  0.005
 -0.000 -0.000  0.078  0.005  0.033
  0.000 -0.033  0.005  0.065  0.000
 -0.000  0.005  0.033  0.000  0.065
atomic mag. moment =     4.634965
atom   29   Tr[ns(na)] (up, down, total) =   0.32349  4.95842  5.28191
   spin  1
    eigenvalues: 
  0.037  0.037  0.038  0.105  0.105
    eigenvectors:
  0.000  0.000  1.000  0.000  0.000
  0.032  0.374  0.000  0.058  0.535
  0.374  0.032  0.000  0.535  0.058
  0.102  0.492  0.000  0.080  0.326
  0.492  0.102  0.000  0.326  0.080
    occupations:
  0.038 -0.000 -0.000 -0.000 -0.000
 -0.000  0.078 -0.000  0.033  0.005
 -0.000 -0.000  0.078  0.005 -0.033
 -0.000  0.033  0.005  0.065  0.000
 -0.000  0.005 -0.033  0.000  0.065
   spin  2
    eigenvalues: 
  0.990  0.990  0.990  0.994  0.994
    eigenvectors:
  1.000  0.000  0.000  0.000  0.000
  0.000  0.020  0.172  0.085  0.723
  0.000  0.172  0.020  0.723  0.085
  0.000  0.144  0.664  0.035  0.158
  0.000  0.664  0.144  0.158  0.035
    occupations:
  0.990 -0.000 -0.000 -0.000 -0.000
 -0.000  0.994 -0.000  0.002  0.000
 -0.000 -0.000  0.994  0.000 -0.002
 -0.000  0.002  0.000  0.991  0.000
 -0.000  0.000 -0.002  0.000  0.991
atomic mag. moment =    -4.634931
atom   30   Tr[ns(na)] (up, down, total) =   4.95843  0.32338  5.28181
   spin  1
    eigenvalues: 
  0.990  0.990  0.990  0.994  0.994
    eigenvectors:
  1.000  0.000  0.000  0.000  0.000
  0.000  0.037  0.155  0.668  0.140
  0.000  0.155  0.037  0.140  0.668
  0.000  0.232  0.576  0.173  0.019
  0.000  0.576  0.231  0.019  0.173
    occupations:
  0.990  0.000  0.000 -0.000 -0.000
  0.000  0.994  0.000 -0.002  0.000
  0.000  0.000  0.994  0.000  0.002
 -0.000 -0.002  0.000  0.991 -0.000
 -0.000  0.000  0.002 -0.000  0.991
   spin  2
    eigenvalues: 
  0.037  0.037  0.038  0.105  0.105
    eigenvectors:
  0.000  0.000  1.000  0.000  0.000
  0.335  0.072  0.000  0.009  0.584
  0.072  0.335  0.000  0.584  0.009
  0.544  0.049  0.000  0.000  0.407
  0.049  0.544  0.000  0.407  0.000
    occupations:
  0.038 -0.000 -0.000 -0.000 -0.000
 -0.000  0.078  0.000 -0.033  0.005
 -0.000  0.000  0.078  0.005  0.033
 -0.000 -0.033  0.005  0.065  0.000
 -0.000  0.005  0.033  0.000  0.065
atomic mag. moment =     4.635054
atom   49   Tr[ns(na)] (up, down, total) =   0.32360  4.95843  5.28204
   spin  1
    eigenvalues: 
  0.037  0.037  0.038  0.105  0.105
    eigenvectors:
  0.000  0.000  1.000  0.000  0.000
  0.032  0.374  0.000  0.059  0.535
  0.374  0.032  0.000  0.535  0.059
  0.102  0.492  0.000  0.080  0.326
  0.492  0.102  0.000  0.326  0.080
    occupations:
  0.038 -0.000 -0.000 -0.000 -0.000
 -0.000  0.078 -0.000  0.033  0.005
 -0.000 -0.000  0.078  0.005 -0.033
 -0.000  0.033  0.005  0.065  0.000
 -0.000  0.005 -0.033  0.000  0.065
   spin  2
    eigenvalues: 
  0.990  0.990  0.990  0.994  0.994
    eigenvectors:
  1.000  0.000  0.000  0.000  0.000
  0.000  0.020  0.173  0.085  0.723
  0.000  0.173  0.020  0.723  0.085
  0.000  0.144  0.663  0.035  0.158
  0.000  0.663  0.144  0.158  0.035
    occupations:
  0.990 -0.000 -0.000 -0.000 -0.000
 -0.000  0.994 -0.000  0.002  0.000
 -0.000 -0.000  0.994  0.000 -0.002
 -0.000  0.002  0.000  0.991  0.000
 -0.000  0.000 -0.002  0.000  0.991
atomic mag. moment =    -4.634827
atom   50   Tr[ns(na)] (up, down, total) =   4.95844  0.32348  5.28192
   spin  1
    eigenvalues: 
  0.990  0.990  0.990  0.994  0.994
    eigenvectors:
  1.000  0.000  0.000  0.000  0.000
  0.000  0.178  0.014  0.071  0.737
  0.000  0.013  0.179  0.737  0.071
  0.000  0.788  0.020  0.007  0.185
  0.000  0.020  0.788  0.185  0.007
    occupations:
  0.990 -0.000 -0.000 -0.000 -0.000
 -0.000  0.994 -0.000 -0.002  0.000
 -0.000 -0.000  0.994  0.000  0.002
 -0.000 -0.002  0.000  0.991 -0.000
 -0.000  0.000  0.002 -0.000  0.991
   spin  2
    eigenvalues: 
  0.037  0.037  0.038  0.105  0.105
    eigenvectors:
  0.000  0.000  1.000  0.000  0.000
[...]
    12.1462  12.1462  12.1489  12.1489  12.1532  12.1532  12.2284  12.2284
    12.2323  12.2323  12.2494  12.2494  12.3049  12.3049  12.3257  12.3257
    12.3346  12.3346  12.3496  12.3496  12.3683  12.3683  12.3710  12.3710
    12.3736  12.3736  12.3925  12.3925  12.4087  12.4087  12.4333  12.4333
    12.4451  12.4451  12.4451  12.4451  12.4594  12.4594  12.4658  12.4658
    12.4725  12.4725  12.4896  12.4896  12.4902  12.4902  12.5016  12.5016
    12.6092  12.6092  12.6102  12.6102  12.6196  12.6196  12.6529  12.6529
    12.6573  12.6573  12.6599  12.6599  12.7266  12.7266  12.7421  12.7421
    12.7422  12.7422  12.7498  12.7498  12.7535  12.7535  12.8086  12.8086
    12.8187  12.8187  12.8308  12.8308  12.8361  12.8361  12.8697  12.8697
    12.8926  12.8926  12.8990  12.8990  12.9178  12.9178  12.9199  12.9199
    12.9221  12.9221  12.9379  12.9379  12.9767  12.9767  12.9889  12.9889

     the Fermi energy is    10.1830 ev

!    total energy              =  -14336.58857441 Ry
     Harris-Foulkes estimate   =  -14336.58857441 Ry
     estimated scf accuracy    <          4.1E-10 Ry

     The total energy is the sum of the following terms:

     one-electron contribution =   -7979.76509375 Ry
     hartree contribution      =    4534.82520736 Ry
     xc contribution           =   -1927.54499408 Ry
     ewald contribution        =   -8969.73900579 Ry
     Hubbard energy            =       5.63531186 Ry
     smearing contrib. (-TS)   =       0.00000000 Ry

     total magnetization       =    -0.00 Bohr mag/cell
     absolute magnetization    =   207.69 Bohr mag/cell

     convergence has been achieved in   9 iterations

     Forces acting on atoms (cartesian axes, Ry/au):

     atom    1 type  1   force =     0.00027902    0.00000197   -0.00000511
     atom    2 type  1   force =    -0.00014124    0.00024078   -0.00000529
     atom    3 type  1   force =     0.00013790    0.00024271    0.00000529
     atom    4 type  1   force =     0.00014122   -0.00024065    0.00000511
     atom    5 type  1   force =    -0.00027934   -0.00000261    0.00000523
     atom    6 type  1   force =    -0.00013741   -0.00024322   -0.00000523
     atom    7 type  1   force =     0.00027794   -0.00000389    0.00000817
     atom    8 type  1   force =    -0.00013560    0.00024265    0.00000817
     atom    9 type  1   force =     0.00013865    0.00024350    0.00000424
     atom   10 type  1   force =     0.00014035   -0.00024312    0.00000411
     atom   11 type  1   force =    -0.00028000   -0.00000138    0.00000410
     atom   12 type  1   force =    -0.00014269   -0.00023934    0.00000779
     atom   13 type  1   force =     0.00028021    0.00000167   -0.00000424
     atom   14 type  1   force =    -0.00014120    0.00024180   -0.00000410
     atom   15 type  1   force =     0.00014234    0.00023876   -0.00000817
     atom   16 type  1   force =     0.00013593   -0.00024324   -0.00000779
     atom   17 type  1   force =    -0.00027862    0.00000390   -0.00000779
     atom   18 type  1   force =    -0.00014037   -0.00024311   -0.00000411
     atom   19 type  2   force =     0.00000011    0.00000124    0.00075729
     atom   20 type  3   force =     0.00000000    0.00000000   -0.00076859
     atom   21 type  2   force =     0.00000113    0.00000053   -0.00075729
     atom   22 type  3   force =     0.00000000    0.00000000    0.00076859
     atom   23 type  2   force =     0.00000000    0.00000000    0.00073985
     atom   24 type  3   force =     0.00000285    0.00000179   -0.00076284
     atom   25 type  2   force =    -0.00000021    0.00000014   -0.00078278
     atom   26 type  3   force =    -0.00000025   -0.00000029    0.00074108
     atom   27 type  2   force =     0.00000002    0.00000025    0.00078278
     atom   28 type  3   force =     0.00000013   -0.00000036   -0.00074108
     atom   29 type  2   force =     0.00000000    0.00000000   -0.00073985
     atom   30 type  3   force =    -0.00000012    0.00000337    0.00076284
     atom   31 type  1   force =     0.00027898    0.00000208   -0.00000510
     atom   32 type  1   force =    -0.00014129    0.00024057   -0.00000510
     atom   33 type  1   force =     0.00013780    0.00024262    0.00000511
     atom   34 type  1   force =     0.00014193   -0.00024061    0.00000523
     atom   35 type  1   force =    -0.00027915   -0.00000193    0.00000529
     atom   36 type  1   force =    -0.00013769   -0.00024265   -0.00000510
     atom   37 type  1   force =     0.00027862   -0.00000390    0.00000779
     atom   38 type  1   force =    -0.00013591    0.00024315    0.00000746
     atom   39 type  1   force =     0.00013900    0.00024353    0.00000427
     atom   40 type  1   force =     0.00014141   -0.00024214    0.00000427
     atom   41 type  1   force =    -0.00028040   -0.00000139    0.00000427
     atom   42 type  1   force =    -0.00014262   -0.00023928    0.00000746
     atom   43 type  1   force =     0.00028073   -0.00000001   -0.00000411
     atom   44 type  1   force =    -0.00014155    0.00024183   -0.00000424
     atom   45 type  1   force =     0.00014272    0.00023942   -0.00000809
     atom   46 type  1   force =     0.00013598   -0.00024331   -0.00000809
     atom   47 type  1   force =    -0.00027794    0.00000389   -0.00000817
     atom   48 type  1   force =    -0.00013881   -0.00024318   -0.00000410
     atom   49 type  2   force =     0.00000000    0.00000000    0.00075397
     atom   50 type  3   force =     0.00000002   -0.00000097   -0.00077022
     atom   51 type  2   force =    -0.00000102    0.00000071   -0.00075729
     atom   52 type  3   force =    -0.00000002    0.00000097    0.00077022
     atom   53 type  2   force =     0.00000018    0.00000160    0.00074289
     atom   54 type  3   force =    -0.00000298    0.00000158   -0.00076284
     atom   55 type  2   force =     0.00000000    0.00000000   -0.00077786
     atom   56 type  3   force =     0.00000038   -0.00000007    0.00074108
     atom   57 type  2   force =    -0.00000023   -0.00000011    0.00078278
     atom   58 type  3   force =     0.00000000    0.00000000   -0.00073798
     atom   59 type  2   force =    -0.00000018   -0.00000160   -0.00074289
     atom   60 type  3   force =     0.00000000    0.00000000    0.00075881
     atom   61 type  1   force =     0.00027915    0.00000193   -0.00000529
     atom   62 type  1   force =    -0.00014193    0.00024061   -0.00000523
     atom   63 type  1   force =     0.00013769    0.00024265    0.00000510
     atom   64 type  1   force =     0.00014129   -0.00024057    0.00000510
     atom   65 type  1   force =    -0.00027898   -0.00000208    0.00000510
     atom   66 type  1   force =    -0.00013780   -0.00024262   -0.00000511
     atom   67 type  1   force =     0.00027870   -0.00000389    0.00000809
     atom   68 type  1   force =    -0.00013593    0.00024324    0.00000779
     atom   69 type  1   force =     0.00013881    0.00024318    0.00000410
     atom   70 type  1   force =     0.00014155   -0.00024183    0.00000424
     atom   71 type  1   force =    -0.00028073    0.00000001    0.00000411
     atom   72 type  1   force =    -0.00014272   -0.00023942    0.00000809
     atom   73 type  1   force =     0.00028040    0.00000139   -0.00000427
     atom   74 type  1   force =    -0.00014141    0.00024214   -0.00000427
     atom   75 type  1   force =     0.00014262    0.00023928   -0.00000746
     atom   76 type  1   force =     0.00013560   -0.00024265   -0.00000817
     atom   77 type  1   force =    -0.00027854    0.00000387   -0.00000746
     atom   78 type  1   force =    -0.00013900   -0.00024353   -0.00000427
     atom   79 type  2   force =     0.00000102   -0.00000071    0.00075729
     atom   80 type  3   force =     0.00000083    0.00000050   -0.00077022
     atom   81 type  2   force =     0.00000000    0.00000000   -0.00075397
     atom   82 type  3   force =    -0.00000083   -0.00000050    0.00077022
     atom   83 type  2   force =    -0.00000147   -0.00000064    0.00074289
     atom   84 type  3   force =     0.00000000    0.00000000   -0.00075881
     atom   85 type  2   force =     0.00000023    0.00000011   -0.00078278
     atom   86 type  3   force =     0.00000000    0.00000000    0.00073798
     atom   87 type  2   force =     0.00000000    0.00000000    0.00077786
     atom   88 type  3   force =    -0.00000038    0.00000007   -0.00074108
     atom   89 type  2   force =     0.00000147    0.00000064   -0.00074289
     atom   90 type  3   force =     0.00000298   -0.00000158    0.00076284
     atom   91 type  1   force =     0.00027934    0.00000261   -0.00000523
     atom   92 type  1   force =    -0.00014122    0.00024065   -0.00000511
     atom   93 type  1   force =     0.00013741    0.00024322    0.00000523
     atom   94 type  1   force =     0.00014124   -0.00024078    0.00000529
     atom   95 type  1   force =    -0.00027902   -0.00000197    0.00000511
     atom   96 type  1   force =    -0.00013790   -0.00024271   -0.00000529
     atom   97 type  1   force =     0.00027854   -0.00000387    0.00000746
     atom   98 type  1   force =    -0.00013598    0.00024331    0.00000809
     atom   99 type  1   force =     0.00014037    0.00024311    0.00000411
     atom  100 type  1   force =     0.00014120   -0.00024180    0.00000410
     atom  101 type  1   force =    -0.00028021   -0.00000167    0.00000424
     atom  102 type  1   force =    -0.00014234   -0.00023876    0.00000817
     atom  103 type  1   force =     0.00028000    0.00000138   -0.00000410
     atom  104 type  1   force =    -0.00014035    0.00024312   -0.00000411
     atom  105 type  1   force =     0.00014269    0.00023934   -0.00000779
     atom  106 type  1   force =     0.00013591   -0.00024315   -0.00000746
     atom  107 type  1   force =    -0.00027870    0.00000389   -0.00000809
     atom  108 type  1   force =    -0.00013865   -0.00024350   -0.00000424
     atom  109 type  2   force =    -0.00000113   -0.00000053    0.00075729
     atom  110 type  3   force =    -0.00000085    0.00000047   -0.00077022
     atom  111 type  2   force =    -0.00000011   -0.00000124   -0.00075729
     atom  112 type  3   force =     0.00000085   -0.00000047    0.00077022
     atom  113 type  2   force =     0.00000129   -0.00000095    0.00074289
     atom  114 type  3   force =     0.00000012   -0.00000337   -0.00076284
     atom  115 type  2   force =    -0.00000002   -0.00000025   -0.00078278
     atom  116 type  3   force =    -0.00000013    0.00000036    0.00074108
     atom  117 type  2   force =     0.00000021   -0.00000014    0.00078278
     atom  118 type  3   force =     0.00000025    0.00000029   -0.00074108
     atom  119 type  2   force =    -0.00000129    0.00000095   -0.00074289
     atom  120 type  3   force =    -0.00000285   -0.00000179    0.00076284

     Total force =     0.005767     Total SCF correction =     0.000084

     bfgs converged in   3 scf cycles and   2 bfgs steps
     (criteria: energy <  1.0E-04 Ry, force <  1.0E-03 Ry/Bohr)

     End of BFGS Geometry Optimization

     Final energy   =  -14336.5885744120 Ry
Begin final coordinates

ATOMIC_POSITIONS (crystal)
O        0.319166994   0.333333325   0.916666607
O        0.166666627   0.485833631   0.916666589
O        0.485833631   0.319167004   0.083333411
O        0.333333325   0.014166331   0.083333393
O        0.180833020   0.166666693   0.083333379
O        0.014166326   0.180833020   0.916666621
O        0.152500601   0.000000045   0.250000025
O       -0.000000045   0.152500556   0.250000025
O        0.319166796   0.485833487   0.416667014
O        0.166666811   0.180833194   0.416667113
O        0.014166396   0.333333157   0.416667069
O        0.347499460   0.347499444   0.250000021
O        0.485833488   0.166666692   0.583332986
O        0.333333157   0.319166760   0.583332931
O        0.152500556   0.152500600   0.749999975
O        0.000000016   0.347499460   0.749999979
O        0.347499444  -0.000000016   0.749999979
O        0.180833194   0.014166383   0.583332887
Fe1      0.166666402   0.333333312   0.021089334
Fe2      0.000000000   0.000000000   0.145580031
Fe1      0.333333312   0.166666411   0.978910666
Fe2      0.000000000   0.000000000   0.854419969
Fe1      0.000000000   0.000000000   0.354424472
Fe2      0.333332935   0.166666184   0.478912817
Fe1      0.166666512   0.333333459   0.312246302
Fe2      0.333333517   0.166666535   0.187755628
Fe1      0.333333459   0.166666448   0.687753698
Fe2      0.166666482   0.333333517   0.812244372
Fe1      0.000000000   0.000000000   0.645575528
Fe2      0.166666251   0.333332935   0.521087183
O        0.819167087   0.333333332   0.916666611
O        0.666666668   0.485833755   0.916666611
O        0.985833669   0.319166993   0.083333393
O        0.833333307   0.014166326   0.083333379
O        0.680832996   0.166666627   0.083333411
O        0.514166245   0.180832914   0.916666611
O        0.652500556   0.000000016   0.250000021
O        0.499999873   0.152500412   0.249999962
O        0.819167000   0.485833792   0.416667067
O        0.666666792   0.180833000   0.416667067
O        0.514166207   0.333333208   0.416667067
O        0.847499588   0.347499461   0.249999962
O        0.985833617   0.166666811   0.583332887
O        0.833333308   0.319166795   0.583332986
O        0.652500524   0.152500511   0.749999957
O        0.499999986   0.347499476   0.749999957
O        0.847499399  -0.000000045   0.749999975
O        0.680833240   0.014166397   0.583332931
Fe1      0.666666500   0.333333500   0.021089649
Fe2      0.500000064   0.000000154   0.145580137
Fe1      0.833333589   0.166666402   0.978910666
Fe2      0.499999936  -0.000000154   0.854419863
Fe1      0.499999810  -0.000000378   0.354424058
Fe2      0.833333816   0.166666251   0.478912817
Fe1      0.666666500   0.333333500   0.312245719
Fe2      0.833333465   0.166666482   0.187755628
Fe1      0.833333552   0.166666512   0.687753698
Fe2      0.666666500   0.333333500   0.812244087
Fe1      0.500000190   0.000000378   0.645575942
Fe2      0.666666500   0.333333500   0.521087489
O        0.319167004   0.833333373   0.916666589
O        0.166666693   0.985833674   0.916666621
O        0.485833755   0.819167086   0.083333389
O        0.333333332   0.514166245   0.083333389
O        0.180832913   0.666666668   0.083333389
O        0.014166331   0.680833007   0.916666607
O        0.152500511   0.499999986   0.250000043
O       -0.000000016   0.652500540   0.250000021
O        0.319166760   0.985833603   0.416667069
O        0.166666692   0.680833205   0.416667014
O        0.014166383   0.833333189   0.416667113
O        0.347499476   0.847499489   0.250000043
O        0.485833793   0.666666792   0.583332933
O        0.333333208   0.819167000   0.583332933
O        0.152500412   0.652500539   0.750000038
O        0.000000045   0.847499444   0.749999975
O        0.347499460   0.499999873   0.750000038
O        0.180833000   0.514166208   0.583332933
Fe1      0.166666411   0.833333598   0.021089334
Fe2     -0.000000154   0.499999910   0.145580137
Fe1      0.333333500   0.666666500   0.978910351
Fe2      0.000000154   0.500000090   0.854419863
Fe1      0.000000378   0.500000188   0.354424058
Fe2      0.333333500   0.666666500   0.478912511
Fe1      0.166666448   0.833333488   0.312246302
Fe2      0.333333500   0.666666500   0.187755913
Fe1      0.333333500   0.666666500   0.687754281
Fe2      0.166666535   0.833333518   0.812244372
Fe1     -0.000000378   0.499999812   0.645575942
Fe2      0.166666184   0.833333749   0.521087183
O        0.819166980   0.833333307   0.916666621
O        0.666666675   0.985833669   0.916666607
O        0.985833674   0.819166980   0.083333379
O        0.833333373   0.514166369   0.083333411
O        0.680833006   0.666666675   0.083333393
O        0.514166369   0.680832996   0.916666589
O        0.652500540   0.500000127   0.249999962
O        0.500000014   0.652500524   0.250000043
O        0.819166806   0.985833617   0.416667113
O        0.666666843   0.680833240   0.416667069
O        0.514166512   0.833333308   0.416667014
O        0.847499444   0.847499400   0.250000025
O        0.985833604   0.666666843   0.583332931
O        0.833333189   0.819166806   0.583332887
O        0.652500540   0.652500556   0.749999979
O        0.500000127   0.847499588   0.750000038
O        0.847499489   0.500000014   0.749999957
O        0.680833204   0.514166513   0.583332986
Fe1      0.666666688   0.833333589   0.021089334
Fe2      0.500000090   0.499999936   0.145580137
Fe1      0.833333598   0.666666688   0.978910666
Fe2      0.499999910   0.500000064   0.854419863
Fe1      0.499999812   0.500000190   0.354424058
Fe2      0.833333749   0.666667065   0.478912817
Fe1      0.666666541   0.833333552   0.312246302
Fe2      0.833333518   0.666666483   0.187755628
Fe1      0.833333488   0.666666541   0.687753698
Fe2      0.666666483   0.833333465   0.812244372
Fe1      0.500000188   0.499999810   0.645575942
Fe2      0.666667065   0.833333816   0.521087183
End final coordinates



     Writing output data file fe2o3.save
 
     init_run     :     36.57s CPU     37.27s WALL (       1 calls)
     electrons    :   2841.53s CPU   2873.68s WALL (       3 calls)
     update_pot   :      4.03s CPU      4.08s WALL (       2 calls)
     forces       :    165.13s CPU    165.98s WALL (       3 calls)

     Called by init_run:
     wfcinit      :     32.27s CPU     32.59s WALL (       1 calls)
     potinit      :      0.79s CPU      0.82s WALL (       1 calls)

     Called by electrons:
     c_bands      :   2568.18s CPU   2590.69s WALL (      32 calls)
     sum_band     :    234.36s CPU    239.49s WALL (      32 calls)
     v_of_rho     :      8.50s CPU      8.74s WALL (      33 calls)
     newd         :     30.90s CPU     35.35s WALL (      33 calls)
     mix_rho      :      1.48s CPU      1.55s WALL (      32 calls)

     Called by c_bands:
     init_us_2    :      7.12s CPU      7.17s WALL (     148 calls)
     cegterg      :   2486.07s CPU   2507.92s WALL (      64 calls)

     Called by sum_band:
     sum_band:bec :      0.88s CPU      0.88s WALL (      64 calls)
     addusdens    :     50.61s CPU     55.39s WALL (      32 calls)

     Called by *egterg:
     h_psi        :    839.55s CPU    839.91s WALL (     209 calls)
     s_psi        :    230.20s CPU    230.08s WALL (     221 calls)
     g_psi        :      1.86s CPU      1.86s WALL (     143 calls)
     cdiaghg      :    965.68s CPU    975.47s WALL (     199 calls)

     Called by h_psi:
     h_psi:pot    :    661.16s CPU    661.56s WALL (     209 calls)
     h_psi:calbec :    210.59s CPU    210.52s WALL (     209 calls)
     vloc_psi     :    239.31s CPU    239.84s WALL (     209 calls)
     add_vuspsi   :    211.26s CPU    211.19s WALL (     209 calls)
     vhpsi        :    173.74s CPU    173.70s WALL (     209 calls)

     General routines
     calbec       :    478.65s CPU    478.57s WALL (    7068 calls)
     fft          :      4.50s CPU      5.04s WALL (    1066 calls)
     ffts         :      0.20s CPU      0.21s WALL (     130 calls)
     fftw         :    225.62s CPU    226.14s WALL (  258684 calls)
     interpolate  :      0.96s CPU      1.03s WALL (     130 calls)
     davcio       :      0.00s CPU      0.05s WALL (       2 calls)
 
     Parallel routines
     fft_scatter  :     66.20s CPU     66.87s WALL (  259880 calls)

     Hubbard U routines
     new_ns       :     15.01s CPU     15.02s WALL (      32 calls)
     vhpsi        :    173.74s CPU    173.70s WALL (     209 calls)
     force_hub    :    114.58s CPU    114.65s WALL (       3 calls)
 
     PWSCF        : 51m17.32s CPU    51m55.63s WALL

 
   This run was terminated on:  18:38:19  21Oct2019            

=------------------------------------------------------------------------------=
   JOB DONE.
=------------------------------------------------------------------------------=
